Program Version,EnergyPlus, Version 23.2.0-7636e6b3e9, YMD=2024.04.05 21:36
1,5,Environment Title[],Latitude[deg],Longitude[deg],Time Zone[],Elevation[m]
2,8,Day of Simulation[],Month[],Day of Month[],DST Indicator[1=yes 0=no],Hour[],StartMinute[],EndMinute[],DayType
3,5,Cumulative Day of Simulation[],Month[],Day of Month[],DST Indicator[1=yes 0=no],DayType  ! When Daily Meters Requested
4,2,Cumulative Days of Simulation[],Month[]  ! When Monthly Meters Requested
5,1,Cumulative Days of Simulation[] ! When Run Period Meters Requested
6,1,Calendar Year of Simulation[] ! When Annual Meters Requested
53,1,Electricity:Facility [J] !TimeStep
5115,1,InteriorEquipment:Electricity [J] !TimeStep
101,1,InteriorLights:Electricity [J] !TimeStep
54,1,Electricity:Facility [J] !Hourly
5116,1,InteriorEquipment:Electricity [J] !Hourly
102,1,InteriorLights:Electricity [J] !Hourly
55,7,Electricity:Facility [J] !Daily [Value,Min,Hour,Minute,Max,Hour,Minute]
5117,7,InteriorEquipment:Electricity [J] !Daily [Value,Min,Hour,Minute,Max,Hour,Minute]
103,7,InteriorLights:Electricity [J] !Daily [Value,Min,Hour,Minute,Max,Hour,Minute]
56,9,Electricity:Facility [J] !Monthly [Value,Min,Day,Hour,Minute,Max,Day,Hour,Minute]
5118,9,InteriorEquipment:Electricity [J] !Monthly [Value,Min,Day,Hour,Minute,Max,Day,Hour,Minute]
104,9,InteriorLights:Electricity [J] !Monthly [Value,Min,Day,Hour,Minute,Max,Day,Hour,Minute]
58,11,Electricity:Facility [J] !RunPeriod [Value,Min,Month,Day,Hour,Minute,Max,Month,Day,Hour,Minute]
5120,11,InteriorEquipment:Electricity [J] !RunPeriod [Value,Min,Month,Day,Hour,Minute,Max,Month,Day,Hour,Minute]
106,11,InteriorLights:Electricity [J] !RunPeriod [Value,Min,Month,Day,Hour,Minute,Max,Month,Day,Hour,Minute]
19455,1,HeatRejection:Electricity [J] !TimeStep
19456,1,HeatRejection:Electricity [J] !Hourly
19457,7,HeatRejection:Electricity [J] !Daily [Value,Min,Hour,Minute,Max,Hour,Minute]
19458,9,HeatRejection:Electricity [J] !Monthly [Value,Min,Day,Hour,Minute,Max,Day,Hour,Minute]
19460,11,HeatRejection:Electricity [J] !RunPeriod [Value,Min,Month,Day,Hour,Minute,Max,Month,Day,Hour,Minute]
15099,1,ElectricityProduced:Facility [J] !Hourly
31118,1,Carbon Equivalent:Facility [kg] !Hourly
15100,7,ElectricityProduced:Facility [J] !Daily [Value,Min,Hour,Minute,Max,Hour,Minute]
31119,7,Carbon Equivalent:Facility [kg] !Daily [Value,Min,Hour,Minute,Max,Hour,Minute]
15101,9,ElectricityProduced:Facility [J] !Monthly [Value,Min,Day,Hour,Minute,Max,Day,Hour,Minute]
31120,9,Carbon Equivalent:Facility [kg] !Monthly [Value,Min,Day,Hour,Minute,Max,Day,Hour,Minute]
15103,11,ElectricityProduced:Facility [J] !RunPeriod [Value,Min,Month,Day,Hour,Minute,Max,Month,Day,Hour,Minute]
31122,11,Carbon Equivalent:Facility [kg] !RunPeriod [Value,Min,Month,Day,Hour,Minute,Max,Month,Day,Hour,Minute]
15098,1,ElectricityProduced:Facility [J] !TimeStep
31117,1,Carbon Equivalent:Facility [kg] !TimeStep
End of Data Dictionary
1,GREEN STUDIO (01-03:31-03),   1.37, 103.98,   8.00,  16.00
2,1, 3, 1, 0, 1, 0.00,15.00,Friday
53,7637156.458192511
101,0.0
5115,2980914.2117013237
15098,0.0
19455,0.0
31117,0.0
2,1, 3, 1, 0, 1,15.00,30.00,Friday
53,7637156.458192511
101,0.0
5115,2980914.2117013237
15098,0.0
19455,0.0
31117,0.0
2,1, 3, 1, 0, 1,30.00,45.00,Friday
53,7637156.458192511
101,0.0
5115,2980914.2117013237
15098,0.0
19455,0.0
31117,0.0
2,1, 3, 1, 0, 1,45.00,60.00,Friday
53,7637156.458192511
101,0.0
5115,2980914.2117013237
15098,0.0
19455,0.0
31117,0.0
2,1, 3, 1, 0, 1, 0.00,60.00,Friday
54,30548625.832770046
102,0.0
5116,11923656.846805295
15099,0.0
19456,0.0
31118,0.0
2,1, 3, 1, 0, 2, 0.00,15.00,Friday
53,7637156.458192511
101,0.0
5115,2980914.2117013237
15098,0.0
19455,0.0
31117,0.0
2,1, 3, 1, 0, 2,15.00,30.00,Friday
53,7637156.458192511
101,0.0
5115,2980914.2117013237
15098,0.0
19455,0.0
31117,0.0
2,1, 3, 1, 0, 2,30.00,45.00,Friday
53,7637156.458192511
101,0.0
5115,2980914.2117013237
15098,0.0
19455,0.0
31117,0.0
2,1, 3, 1, 0, 2,45.00,60.00,Friday
53,7637156.458192511
101,0.0
5115,2980914.2117013237
15098,0.0
19455,0.0
31117,0.0
2,1, 3, 1, 0, 2, 0.00,60.00,Friday
54,30548625.832770046
102,0.0
5116,11923656.846805295
15099,0.0
19456,0.0
31118,0.0
2,1, 3, 1, 0, 3, 0.00,15.00,Friday
53,7637156.458192511
101,0.0
5115,2980914.2117013237
15098,0.0
19455,0.0
31117,0.0
2,1, 3, 1, 0, 3,15.00,30.00,Friday
53,7637156.458192511
101,0.0
5115,2980914.2117013237
15098,0.0
19455,0.0
31117,0.0
2,1, 3, 1, 0, 3,30.00,45.00,Friday
53,7637156.458192511
101,0.0
5115,2980914.2117013237
15098,0.0
19455,0.0
31117,0.0
2,1, 3, 1, 0, 3,45.00,60.00,Friday
53,7637156.458192511
101,0.0
5115,2980914.2117013237
15098,0.0
19455,0.0
31117,0.0
2,1, 3, 1, 0, 3, 0.00,60.00,Friday
54,30548625.832770046
102,0.0
5116,11923656.846805295
15099,0.0
19456,0.0
31118,0.0
2,1, 3, 1, 0, 4, 0.00,15.00,Friday
53,7637156.458192511
101,0.0
5115,2980914.2117013237
15098,0.0
19455,0.0
31117,0.0
2,1, 3, 1, 0, 4,15.00,30.00,Friday
53,7637156.458192511
101,0.0
5115,2980914.2117013237
15098,0.0
19455,0.0
31117,0.0
2,1, 3, 1, 0, 4,30.00,45.00,Friday
53,7637156.458192511
101,0.0
5115,2980914.2117013237
15098,0.0
19455,0.0
31117,0.0
2,1, 3, 1, 0, 4,45.00,60.00,Friday
53,7637156.458192511
101,0.0
5115,2980914.2117013237
15098,0.0
19455,0.0
31117,0.0
2,1, 3, 1, 0, 4, 0.00,60.00,Friday
54,30548625.832770046
102,0.0
5116,11923656.846805295
15099,0.0
19456,0.0
31118,0.0
2,1, 3, 1, 0, 5, 0.00,15.00,Friday
53,7637156.458192511
101,0.0
5115,2980914.2117013237
15098,0.0
19455,0.0
31117,0.0
2,1, 3, 1, 0, 5,15.00,30.00,Friday
53,7637156.458192511
101,0.0
5115,2980914.2117013237
15098,0.0
19455,0.0
31117,0.0
2,1, 3, 1, 0, 5,30.00,45.00,Friday
53,7637156.458192511
101,0.0
5115,2980914.2117013237
15098,0.0
19455,0.0
31117,0.0
2,1, 3, 1, 0, 5,45.00,60.00,Friday
53,7637156.458192511
101,0.0
5115,2980914.2117013237
15098,0.0
19455,0.0
31117,0.0
2,1, 3, 1, 0, 5, 0.00,60.00,Friday
54,30548625.832770046
102,0.0
5116,11923656.846805295
15099,0.0
19456,0.0
31118,0.0
2,1, 3, 1, 0, 6, 0.00,15.00,Friday
53,7637156.458192511
101,0.0
5115,2980914.2117013237
15098,0.0
19455,0.0
31117,0.0
2,1, 3, 1, 0, 6,15.00,30.00,Friday
53,7637156.458192511
101,0.0
5115,2980914.2117013237
15098,0.0
19455,0.0
31117,0.0
2,1, 3, 1, 0, 6,30.00,45.00,Friday
53,7637156.458192511
101,0.0
5115,2980914.2117013237
15098,0.0
19455,0.0
31117,0.0
2,1, 3, 1, 0, 6,45.00,60.00,Friday
53,7637156.458192511
101,0.0
5115,2980914.2117013237
15098,0.0
19455,0.0
31117,0.0
2,1, 3, 1, 0, 6, 0.00,60.00,Friday
54,30548625.832770046
102,0.0
5116,11923656.846805295
15099,0.0
19456,0.0
31118,0.0
2,1, 3, 1, 0, 7, 0.00,15.00,Friday
53,7883740.870192512
101,246584.412
5115,2980914.2117013237
15098,0.0
19455,0.0
31117,0.0
2,1, 3, 1, 0, 7,15.00,30.00,Friday
53,7883740.870192512
101,246584.412
5115,2980914.2117013237
15098,0.0
19455,0.0
31117,0.0
2,1, 3, 1, 0, 7,30.00,45.00,Friday
53,7883740.870192512
101,246584.412
5115,2980914.2117013237
15098,0.0
19455,0.0
31117,0.0
2,1, 3, 1, 0, 7,45.00,60.00,Friday
53,7883740.870192512
101,246584.412
5115,2980914.2117013237
15098,0.0
19455,0.0
31117,0.0
2,1, 3, 1, 0, 7, 0.00,60.00,Friday
54,31534963.480770048
102,986337.648
5116,11923656.846805295
15099,0.0
19456,0.0
31118,0.0
2,1, 3, 1, 0, 8, 0.00,15.00,Friday
53,213871734.17958778
101,5495820.0299999975
5115,10254418.263758881
15098,0.0
19455,0.0
31117,0.0
2,1, 3, 1, 0, 8,15.00,30.00,Friday
53,207476148.11334568
101,5466197.846798029
5115,10254418.263758881
15098,6072987.2055761535
19455,0.0
31117,0.0
2,1, 3, 1, 0, 8,30.00,45.00,Friday
53,206803862.54258022
101,5359312.964498047
5115,10254418.263758881
15098,17593169.12750977
19455,0.0
31117,0.0
2,1, 3, 1, 0, 8,45.00,60.00,Friday
53,201702816.55352777
101,5176060.238780168
5115,10254418.263758881
15098,29540060.42362037
19455,0.0
31117,0.0
2,1, 3, 1, 0, 8, 0.00,60.00,Friday
54,829854561.3890414
102,21497391.08007624
5116,41017673.055035524
15099,53206216.7567063
19456,0.0
31118,0.0
2,1, 3, 1, 0, 9, 0.00,15.00,Friday
53,390106584.57940567
101,28097582.068680815
5115,50465289.14175888
15098,41851068.19925601
19455,0.0
31117,0.0
2,1, 3, 1, 0, 9,15.00,30.00,Friday
53,384240528.6842848
101,27014964.043035574
5115,50465289.14175888
15098,54610948.27219536
19455,0.0
31117,0.0
2,1, 3, 1, 0, 9,30.00,45.00,Friday
53,327981284.63545823
101,26172348.98811144
5115,50465289.14175888
15098,64850629.79063617
19455,0.0
31117,0.0
2,1, 3, 1, 0, 9,45.00,60.00,Friday
53,311270388.3613744
101,25745779.953952212
5115,50465289.14175888
15098,74966949.44807294
19455,0.0
31117,0.0
2,1, 3, 1, 0, 9, 0.00,60.00,Friday
54,1413598786.260523
102,107030675.05378003
5116,201861156.56703553
15099,236279595.71016046
19456,0.0
31118,0.0
2,1, 3, 1, 0,10, 0.00,15.00,Friday
53,408118537.2152201
101,25017191.913723543
5115,89931583.4598
15098,84860725.60164389
19455,0.0
31117,0.0
2,1, 3, 1, 0,10,15.00,30.00,Friday
53,369487609.1273934
101,24370642.03901243
5115,89931583.4598
15098,94591226.16011123
19455,0.0
31117,0.0
2,1, 3, 1, 0,10,30.00,45.00,Friday
53,369800040.82097036
101,24639505.41248619
5115,89931583.4598
15098,92376005.20284769
19455,0.0
31117,0.0
2,1, 3, 1, 0,10,45.00,60.00,Friday
53,369368131.3106919
101,24881684.133848257
5115,89931583.4598
15098,90090989.90073536
19455,0.0
31117,0.0
2,1, 3, 1, 0,10, 0.00,60.00,Friday
54,1516774318.4742756
102,98909023.49907044
5116,359726333.8392
15099,361918946.8653382
19456,0.0
31118,0.0
2,1, 3, 1, 0,11, 0.00,15.00,Friday
53,379169246.29990816
101,28748723.777854837
5115,91465997.72580001
15098,87743023.25240847
19455,0.0
31117,0.0
2,1, 3, 1, 0,11,15.00,30.00,Friday
53,378106644.1203633
101,29023830.951395076
5115,91465997.72580001
15098,85337063.53483042
19455,0.0
31117,0.0
2,1, 3, 1, 0,11,30.00,45.00,Friday
53,377077871.4585783
101,28616785.700060684
5115,91465997.72580001
15098,90826466.32892783
19455,0.0
31117,0.0
2,1, 3, 1, 0,11,45.00,60.00,Friday
53,376847296.73625016
101,28249177.765151005
5115,91465997.72580001
15098,96224656.18666878
19455,0.0
31117,0.0
2,1, 3, 1, 0,11, 0.00,60.00,Friday
54,1511201058.6151
102,114638518.1944616
5116,365863990.90320003
15099,360131209.30283546
19456,0.0
31118,0.0
2,1, 3, 1, 0,12, 0.00,15.00,Friday
53,383874600.6659315
101,28169544.745880276
5115,91465997.72580001
15098,101540737.82140735
19455,0.0
31117,0.0
2,1, 3, 1, 0,12,15.00,30.00,Friday
53,381233968.590995
101,27845841.004538894
5115,91465997.72580001
15098,106784498.3192031
19455,0.0
31117,0.0
2,1, 3, 1, 0,12,30.00,45.00,Friday
53,382179397.1906433
101,27673980.404507395
5115,91465997.72580001
15098,110126444.80201107
19455,220075.09251753945
31117,0.0
2,1, 3, 1, 0,12,45.00,60.00,Friday
53,384545680.67727554
101,27516437.67086742
5115,91465997.72580001
15098,113466318.54536738
19455,1336451.41682009
31117,0.0
2,1, 3, 1, 0,12, 0.00,60.00,Friday
54,1531833647.1248455
102,111205803.82579398
5116,365863990.90320003
15099,431917999.4879889
19456,1556526.5093376294
31118,0.0
2,1, 3, 1, 0,13, 0.00,15.00,Friday
53,263476573.96902663
101,17969918.988318708
5115,72577653.89579998
15098,116802677.13215351
19455,0.0
31117,0.0
2,1, 3, 1, 0,13,15.00,30.00,Friday
53,271943368.2786605
101,17888808.08073476
5115,72577653.89579998
15098,120133998.14144382
19455,0.0
31117,0.0
2,1, 3, 1, 0,13,30.00,45.00,Friday
53,274703056.41548085
101,17862079.144668434
5115,72577653.89579998
15098,120768416.86479425
19455,0.0
31117,0.0
2,1, 3, 1, 0,13,45.00,60.00,Friday
53,276441098.5151199
101,17827357.746359717
5115,72577653.89579998
15098,121390783.53910023
19455,0.0
31117,0.0
2,1, 3, 1, 0,13, 0.00,60.00,Friday
54,1086564097.178288
102,71548163.96008162
5116,290310615.5831999
15099,479095875.67749184
19456,0.0
31118,0.0
2,1, 3, 1, 0,14, 0.00,15.00,Friday
53,404743491.51445866
101,28078946.08800197
5115,91465997.72580001
15098,122000003.59206203
19455,0.0
31117,0.0
2,1, 3, 1, 0,14,15.00,30.00,Friday
53,391969826.498042
101,28040099.848391864
5115,91465997.72580001
15098,122595077.38253734
19455,588900.8109540517
31117,0.0
2,1, 3, 1, 0,14,30.00,45.00,Friday
53,389261912.1538039
101,28098434.39821069
5115,91465997.72580001
15098,120834345.55029574
19455,1060871.4590210328
31117,0.0
2,1, 3, 1, 0,14,45.00,60.00,Friday
53,388127661.6058085
101,28158650.96629815
5115,91465997.72580001
15098,119061947.01547554
19455,1333588.5604655675
31117,0.0
2,1, 3, 1, 0,14, 0.00,60.00,Friday
54,1574102891.772113
102,112376131.30090268
5116,365863990.90320003
15099,484491373.5403706
19456,2983360.8304406516
31118,0.0
2,1, 3, 1, 0,15, 0.00,15.00,Friday
53,385701001.39350235
101,28172870.473422717
5115,91465997.72580001
15098,117280411.92732343
19455,1134264.8125266477
31117,0.0
2,1, 3, 1, 0,15,15.00,30.00,Friday
53,386569474.2715175
101,28153841.964920998
5115,91465997.72580001
15098,115492038.19359647
19455,1072447.0696414267
31117,0.0
2,1, 3, 1, 0,15,30.00,45.00,Friday
53,387125085.18269205
101,28227945.45460757
5115,91465997.72580001
15098,111354351.8519507
19455,994464.2020002678
31117,0.0
2,1, 3, 1, 0,15,45.00,60.00,Friday
53,387331805.6483058
101,28291956.05007806
5115,91465997.72580001
15098,107213121.6999298
19455,884957.4175451414
31117,0.0
2,1, 3, 1, 0,15, 0.00,60.00,Friday
54,1546727366.496018
102,112846613.94302934
5116,365863990.90320003
15099,451339923.6728004
19456,4086133.5017134836
31118,0.0
2,1, 3, 1, 0,16, 0.00,15.00,Friday
53,384017140.18083686
101,27111224.40167251
5115,91465997.72580001
15098,103070287.1788328
19455,791032.4762936627
31117,0.0
2,1, 3, 1, 0,16,15.00,30.00,Friday
53,383381643.26752365
101,27179458.22855913
5115,91465997.72580001
15098,98927757.85119212
19455,749308.1217650654
31117,0.0
2,1, 3, 1, 0,16,30.00,45.00,Friday
53,383074710.9262219
101,27378664.188665863
5115,91465997.72580001
15098,92628704.4756202
19455,723347.8941064165
31117,0.0
2,1, 3, 1, 0,16,45.00,60.00,Friday
53,383119064.63377094
101,27592659.518009346
5115,91465997.72580001
15098,86361396.16608515
19455,715069.0594844753
31117,0.0
2,1, 3, 1, 0,16, 0.00,60.00,Friday
54,1533592559.0083532
102,109262006.33690685
5116,365863990.90320003
15099,380988145.6717303
19456,2978757.55164962
31118,0.0
2,1, 3, 1, 0,17, 0.00,15.00,Friday
53,374357310.2336297
101,27888149.75417883
5115,91465997.72580001
15098,80130922.27318531
19455,0.0
31117,0.0
2,1, 3, 1, 0,17,15.00,30.00,Friday
53,373373532.5891633
101,28277654.903610546
5115,91465997.72580001
15098,73942053.33787099
19455,0.0
31117,0.0
2,1, 3, 1, 0,17,30.00,45.00,Friday
53,372373955.9552264
101,29038075.864489548
5115,91465997.72580001
15098,66211283.80440517
19455,0.0
31117,0.0
2,1, 3, 1, 0,17,45.00,60.00,Friday
53,371570542.3795391
101,30117829.245968312
5115,91465997.72580001
15098,58480507.12471394
19455,0.0
31117,0.0
2,1, 3, 1, 0,17, 0.00,60.00,Friday
54,1491675341.1575584
102,115321709.76824725
5116,365863990.90320003
15099,278764766.54017544
19456,0.0
31118,0.0
2,1, 3, 1, 0,18, 0.00,15.00,Friday
53,372077175.3365043
101,31783823.716812078
5115,87975889.1737589
15098,50749698.51809202
19455,0.0
31117,0.0
2,1, 3, 1, 0,18,15.00,30.00,Friday
53,370078517.26335585
101,33426898.28886418
5115,87975889.1737589
15098,43018790.06465848
19455,0.0
31117,0.0
2,1, 3, 1, 0,18,30.00,45.00,Friday
53,374489763.2510546
101,35055529.02269955
5115,87975889.1737589
15098,35405126.443565786
19455,0.0
31117,0.0
2,1, 3, 1, 0,18,45.00,60.00,Friday
53,377585945.2150755
101,36687849.55413286
5115,87975889.1737589
15098,27801033.71436567
19455,0.0
31117,0.0
2,1, 3, 1, 0,18, 0.00,60.00,Friday
54,1494231401.0659902
102,136954100.58250865
5116,351903556.6950356
15099,156974648.74068195
19456,0.0
31118,0.0
2,1, 3, 1, 0,19, 0.00,15.00,Friday
53,252127437.0942535
101,37339961.08835094
5115,51999703.40775888
15098,20206609.906563416
19455,0.0
31117,0.0
2,1, 3, 1, 0,19,15.00,30.00,Friday
53,256958259.85389885
101,38949012.01525979
5115,51999703.40775888
15098,12613134.54008979
19455,0.0
31117,0.0
2,1, 3, 1, 0,19,30.00,45.00,Friday
53,261543693.8429333
101,39559098.84892126
5115,51999703.40775888
15098,9576385.45745701
19455,0.0
31117,0.0
2,1, 3, 1, 0,19,45.00,60.00,Friday
53,264749030.68436587
101,40155080.486307874
5115,51999703.40775888
15098,6539991.989915837
19455,0.0
31117,0.0
2,1, 3, 1, 0,19, 0.00,60.00,Friday
54,1035378421.4754516
102,156003152.43883985
5116,207998813.6310355
15099,48936121.894026056
19456,0.0
31118,0.0
2,1, 3, 1, 0,20, 0.00,15.00,Friday
53,21479831.25025006
101,5034756.474
5115,11788832.529758876
15098,3485400.1279902486
19455,0.0
31117,0.0
2,1, 3, 1, 0,20,15.00,30.00,Friday
53,21479831.25025006
101,5034756.474
5115,11788832.529758876
15098,0.0
19455,0.0
31117,0.0
2,1, 3, 1, 0,20,30.00,45.00,Friday
53,21479831.25025006
101,5034756.474
5115,11788832.529758876
15098,0.0
19455,0.0
31117,0.0
2,1, 3, 1, 0,20,45.00,60.00,Friday
53,21479831.25025006
101,5034756.474
5115,11788832.529758876
15098,0.0
19455,0.0
31117,0.0
2,1, 3, 1, 0,20, 0.00,60.00,Friday
54,85919325.00100024
102,20139025.896
5116,47155330.119035505
15099,3485400.1279902486
19456,0.0
31118,0.0
2,1, 3, 1, 0,21, 0.00,15.00,Friday
53,14699763.601192499
101,5034756.474
5115,5008764.880701328
15098,0.0
19455,0.0
31117,0.0
2,1, 3, 1, 0,21,15.00,30.00,Friday
53,14699763.601192499
101,5034756.474
5115,5008764.880701328
15098,0.0
19455,0.0
31117,0.0
2,1, 3, 1, 0,21,30.00,45.00,Friday
53,14699763.601192499
101,5034756.474
5115,5008764.880701328
15098,0.0
19455,0.0
31117,0.0
2,1, 3, 1, 0,21,45.00,60.00,Friday
53,14699763.601192499
101,5034756.474
5115,5008764.880701328
15098,0.0
19455,0.0
31117,0.0
2,1, 3, 1, 0,21, 0.00,60.00,Friday
54,58799054.404769994
102,20139025.896
5116,20035059.52280531
15099,0.0
19456,0.0
31118,0.0
2,1, 3, 1, 0,22, 0.00,15.00,Friday
53,13046354.224192508
101,3874783.5000000005
5115,4515328.477701326
15098,0.0
19455,0.0
31117,0.0
2,1, 3, 1, 0,22,15.00,30.00,Friday
53,13046354.224192508
101,3874783.5000000005
5115,4515328.477701326
15098,0.0
19455,0.0
31117,0.0
2,1, 3, 1, 0,22,30.00,45.00,Friday
53,13046354.224192508
101,3874783.5000000005
5115,4515328.477701326
15098,0.0
19455,0.0
31117,0.0
2,1, 3, 1, 0,22,45.00,60.00,Friday
53,13046354.224192508
101,3874783.5000000005
5115,4515328.477701326
15098,0.0
19455,0.0
31117,0.0
2,1, 3, 1, 0,22, 0.00,60.00,Friday
54,52185416.89677003
102,15499134.000000002
5116,18061313.910805304
15099,0.0
19456,0.0
31118,0.0
2,1, 3, 1, 0,23, 0.00,15.00,Friday
53,7637156.458192511
101,0.0
5115,2980914.2117013237
15098,0.0
19455,0.0
31117,0.0
2,1, 3, 1, 0,23,15.00,30.00,Friday
53,7637156.458192511
101,0.0
5115,2980914.2117013237
15098,0.0
19455,0.0
31117,0.0
2,1, 3, 1, 0,23,30.00,45.00,Friday
53,7637156.458192511
101,0.0
5115,2980914.2117013237
15098,0.0
19455,0.0
31117,0.0
2,1, 3, 1, 0,23,45.00,60.00,Friday
53,7637156.458192511
101,0.0
5115,2980914.2117013237
15098,0.0
19455,0.0
31117,0.0
2,1, 3, 1, 0,23, 0.00,60.00,Friday
54,30548625.832770046
102,0.0
5116,11923656.846805295
15099,0.0
19456,0.0
31118,0.0
2,1, 3, 1, 0,24, 0.00,15.00,Friday
53,7637156.458192511
101,0.0
5115,2980914.2117013237
15098,0.0
19455,0.0
31117,0.0
2,1, 3, 1, 0,24,15.00,30.00,Friday
53,7637156.458192511
101,0.0
5115,2980914.2117013237
15098,0.0
19455,0.0
31117,0.0
2,1, 3, 1, 0,24,30.00,45.00,Friday
53,7637156.458192511
101,0.0
5115,2980914.2117013237
15098,0.0
19455,0.0
31117,0.0
2,1, 3, 1, 0,24,45.00,60.00,Friday
53,7637156.458192511
101,0.0
5115,2980914.2117013237
15098,0.0
19455,0.0
31117,0.0
2,1, 3, 1, 0,24, 0.00,60.00,Friday
54,30548625.832770046
102,0.0
5116,11923656.846805295
15099,0.0
19456,0.0
31118,0.0
3,1, 3, 1, 0,Friday
55,17038362216.463028,7637156.458192511, 1,15,408118537.2152201,10,15
103,1324356813.4236984,0.0, 1,15,40155080.486307874,19,60
5117,3840566709.963637,2980914.2117013237, 1,15,91465997.72580001,11,15
15100,3727530223.988296,0.0, 1,15,122595077.38253734,14,30
19457,11604778.393141385,0.0, 1,15,1336451.41682009,12,60
31119,0.0,0.0, 1,15,0.0, 1,15
2,2, 3, 2, 0, 1, 0.00,15.00,Saturday
53,7637156.458192511
101,0.0
5115,2980914.2117013237
15098,0.0
19455,0.0
31117,0.0
2,2, 3, 2, 0, 1,15.00,30.00,Saturday
53,7637156.458192511
101,0.0
5115,2980914.2117013237
15098,0.0
19455,0.0
31117,0.0
2,2, 3, 2, 0, 1,30.00,45.00,Saturday
53,7637156.458192511
101,0.0
5115,2980914.2117013237
15098,0.0
19455,0.0
31117,0.0
2,2, 3, 2, 0, 1,45.00,60.00,Saturday
53,7637156.458192511
101,0.0
5115,2980914.2117013237
15098,0.0
19455,0.0
31117,0.0
2,2, 3, 2, 0, 1, 0.00,60.00,Saturday
54,30548625.832770046
102,0.0
5116,11923656.846805295
15099,0.0
19456,0.0
31118,0.0
2,2, 3, 2, 0, 2, 0.00,15.00,Saturday
53,7637156.458192511
101,0.0
5115,2980914.2117013237
15098,0.0
19455,0.0
31117,0.0
2,2, 3, 2, 0, 2,15.00,30.00,Saturday
53,7637156.458192511
101,0.0
5115,2980914.2117013237
15098,0.0
19455,0.0
31117,0.0
2,2, 3, 2, 0, 2,30.00,45.00,Saturday
53,7637156.458192511
101,0.0
5115,2980914.2117013237
15098,0.0
19455,0.0
31117,0.0
2,2, 3, 2, 0, 2,45.00,60.00,Saturday
53,7637156.458192511
101,0.0
5115,2980914.2117013237
15098,0.0
19455,0.0
31117,0.0
2,2, 3, 2, 0, 2, 0.00,60.00,Saturday
54,30548625.832770046
102,0.0
5116,11923656.846805295
15099,0.0
19456,0.0
31118,0.0
2,2, 3, 2, 0, 3, 0.00,15.00,Saturday
53,7637156.458192511
101,0.0
5115,2980914.2117013237
15098,0.0
19455,0.0
31117,0.0
2,2, 3, 2, 0, 3,15.00,30.00,Saturday
53,7637156.458192511
101,0.0
5115,2980914.2117013237
15098,0.0
19455,0.0
31117,0.0
2,2, 3, 2, 0, 3,30.00,45.00,Saturday
53,7637156.458192511
101,0.0
5115,2980914.2117013237
15098,0.0
19455,0.0
31117,0.0
2,2, 3, 2, 0, 3,45.00,60.00,Saturday
53,7637156.458192511
101,0.0
5115,2980914.2117013237
15098,0.0
19455,0.0
31117,0.0
2,2, 3, 2, 0, 3, 0.00,60.00,Saturday
54,30548625.832770046
102,0.0
5116,11923656.846805295
15099,0.0
19456,0.0
31118,0.0
2,2, 3, 2, 0, 4, 0.00,15.00,Saturday
53,7637156.458192511
101,0.0
5115,2980914.2117013237
15098,0.0
19455,0.0
31117,0.0
2,2, 3, 2, 0, 4,15.00,30.00,Saturday
53,7637156.458192511
101,0.0
5115,2980914.2117013237
15098,0.0
19455,0.0
31117,0.0
2,2, 3, 2, 0, 4,30.00,45.00,Saturday
53,7637156.458192511
101,0.0
5115,2980914.2117013237
15098,0.0
19455,0.0
31117,0.0
2,2, 3, 2, 0, 4,45.00,60.00,Saturday
53,7637156.458192511
101,0.0
5115,2980914.2117013237
15098,0.0
19455,0.0
31117,0.0
2,2, 3, 2, 0, 4, 0.00,60.00,Saturday
54,30548625.832770046
102,0.0
5116,11923656.846805295
15099,0.0
19456,0.0
31118,0.0
2,2, 3, 2, 0, 5, 0.00,15.00,Saturday
53,7637156.458192511
101,0.0
5115,2980914.2117013237
15098,0.0
19455,0.0
31117,0.0
2,2, 3, 2, 0, 5,15.00,30.00,Saturday
53,7637156.458192511
101,0.0
5115,2980914.2117013237
15098,0.0
19455,0.0
31117,0.0
2,2, 3, 2, 0, 5,30.00,45.00,Saturday
53,7637156.458192511
101,0.0
5115,2980914.2117013237
15098,0.0
19455,0.0
31117,0.0
2,2, 3, 2, 0, 5,45.00,60.00,Saturday
53,7637156.458192511
101,0.0
5115,2980914.2117013237
15098,0.0
19455,0.0
31117,0.0
2,2, 3, 2, 0, 5, 0.00,60.00,Saturday
54,30548625.832770046
102,0.0
5116,11923656.846805295
15099,0.0
19456,0.0
31118,0.0
2,2, 3, 2, 0, 6, 0.00,15.00,Saturday
53,7637156.458192511
101,0.0
5115,2980914.2117013237
15098,0.0
19455,0.0
31117,0.0
2,2, 3, 2, 0, 6,15.00,30.00,Saturday
53,7637156.458192511
101,0.0
5115,2980914.2117013237
15098,0.0
19455,0.0
31117,0.0
2,2, 3, 2, 0, 6,30.00,45.00,Saturday
53,7637156.458192511
101,0.0
5115,2980914.2117013237
15098,0.0
19455,0.0
31117,0.0
2,2, 3, 2, 0, 6,45.00,60.00,Saturday
53,7637156.458192511
101,0.0
5115,2980914.2117013237
15098,0.0
19455,0.0
31117,0.0
2,2, 3, 2, 0, 6, 0.00,60.00,Saturday
54,30548625.832770046
102,0.0
5116,11923656.846805295
15099,0.0
19456,0.0
31118,0.0
2,2, 3, 2, 0, 7, 0.00,15.00,Saturday
53,7637156.458192511
101,0.0
5115,2980914.2117013237
15098,0.0
19455,0.0
31117,0.0
2,2, 3, 2, 0, 7,15.00,30.00,Saturday
53,7637156.45819251
101,0.0
5115,2980914.2117013237
15098,0.0
19455,0.0
31117,0.0
2,2, 3, 2, 0, 7,30.00,45.00,Saturday
53,7637156.458192511
101,0.0
5115,2980914.2117013237
15098,0.0
19455,0.0
31117,0.0
2,2, 3, 2, 0, 7,45.00,60.00,Saturday
53,7637156.458192511
101,0.0
5115,2980914.2117013237
15098,0.0
19455,0.0
31117,0.0
2,2, 3, 2, 0, 7, 0.00,60.00,Saturday
54,30548625.832770046
102,0.0
5116,11923656.846805295
15099,0.0
19456,0.0
31118,0.0
2,2, 3, 2, 0, 8, 0.00,15.00,Saturday
53,7637156.458192511
101,0.0
5115,2980914.2117013237
15098,0.0
19455,0.0
31117,0.0
2,2, 3, 2, 0, 8,15.00,30.00,Saturday
53,7637156.458192511
101,0.0
5115,2980914.2117013237
15098,2335245.0821198253
19455,0.0
31117,0.0
2,2, 3, 2, 0, 8,30.00,45.00,Saturday
53,7637156.458192511
101,0.0
5115,2980914.2117013237
15098,7637156.4581925105
19455,0.0
31117,0.0
2,2, 3, 2, 0, 8,45.00,60.00,Saturday
53,7637156.458192511
101,0.0
5115,2980914.2117013237
15098,7637156.45819251
19455,0.0
31117,0.0
2,2, 3, 2, 0, 8, 0.00,60.00,Saturday
54,30548625.832770046
102,0.0
5116,11923656.846805295
15099,17609557.998504844
19456,0.0
31118,0.0
2,2, 3, 2, 0, 9, 0.00,15.00,Saturday
53,7637156.458192511
101,0.0
5115,2980914.2117013237
15098,7637156.458192509
19455,0.0
31117,0.0
2,2, 3, 2, 0, 9,15.00,30.00,Saturday
53,7637156.458192511
101,0.0
5115,2980914.2117013237
15098,7637156.458192512
19455,0.0
31117,0.0
2,2, 3, 2, 0, 9,30.00,45.00,Saturday
53,7637156.458192511
101,0.0
5115,2980914.2117013237
15098,7637156.4581925105
19455,0.0
31117,0.0
2,2, 3, 2, 0, 9,45.00,60.00,Saturday
53,7637156.458192511
101,0.0
5115,2980914.2117013237
15098,7637156.4581925105
19455,0.0
31117,0.0
2,2, 3, 2, 0, 9, 0.00,60.00,Saturday
54,30548625.832770046
102,0.0
5116,11923656.846805295
15099,30548625.832770042
19456,0.0
31118,0.0
2,2, 3, 2, 0,10, 0.00,15.00,Saturday
53,7637156.458192511
101,0.0
5115,2980914.2117013237
15098,7637156.45819252
19455,0.0
31117,0.0
2,2, 3, 2, 0,10,15.00,30.00,Saturday
53,7637156.458192511
101,0.0
5115,2980914.2117013237
15098,14236426.507737197
19455,0.0
31117,0.0
2,2, 3, 2, 0,10,30.00,45.00,Saturday
53,7637156.458192511
101,0.0
5115,2980914.2117013237
15098,21267753.851176344
19455,0.0
31117,0.0
2,2, 3, 2, 0,10,45.00,60.00,Saturday
53,7637156.458192511
101,0.0
5115,2980914.2117013237
15098,28324784.821002543
19455,0.0
31117,0.0
2,2, 3, 2, 0,10, 0.00,60.00,Saturday
54,30548625.832770046
102,0.0
5116,11923656.846805295
15099,71466121.63810861
19456,0.0
31118,0.0
2,2, 3, 2, 0,11, 0.00,15.00,Saturday
53,7637156.458192511
101,0.0
5115,2980914.2117013237
15098,35405724.34364949
19455,0.0
31117,0.0
2,2, 3, 2, 0,11,15.00,30.00,Saturday
53,7637156.458192511
101,0.0
5115,2980914.2117013237
15098,42508613.12705203
19455,0.0
31117,0.0
2,2, 3, 2, 0,11,30.00,45.00,Saturday
53,7637156.458192511
101,0.0
5115,2980914.2117013237
15098,47971637.715917625
19455,0.0
31117,0.0
2,2, 3, 2, 0,11,45.00,60.00,Saturday
53,7637156.458192511
101,0.0
5115,2980914.2117013237
15098,53460392.73579069
19455,0.0
31117,0.0
2,2, 3, 2, 0,11, 0.00,60.00,Saturday
54,30548625.832770046
102,0.0
5116,11923656.846805295
15099,179346367.92240983
19456,0.0
31118,0.0
2,2, 3, 2, 0,12, 0.00,15.00,Saturday
53,7637156.458192511
101,0.0
5115,2980914.2117013237
15098,58971281.926663116
19455,0.0
31117,0.0
2,2, 3, 2, 0,12,15.00,30.00,Saturday
53,7637156.458192511
101,0.0
5115,2980914.2117013237
15098,64500514.442781694
19455,0.0
31117,0.0
2,2, 3, 2, 0,12,30.00,45.00,Saturday
53,7637156.458192511
101,0.0
5115,2980914.2117013237
15098,67725648.82677427
19455,0.0
31117,0.0
2,2, 3, 2, 0,12,45.00,60.00,Saturday
53,7637156.458192511
101,0.0
5115,2980914.2117013237
15098,70948645.03977318
19455,0.0
31117,0.0
2,2, 3, 2, 0,12, 0.00,60.00,Saturday
54,30548625.832770046
102,0.0
5116,11923656.846805295
15099,262146090.23599225
19456,0.0
31118,0.0
2,2, 3, 2, 0,13, 0.00,15.00,Saturday
53,7637156.458192511
101,0.0
5115,2980914.2117013237
15098,74168066.93406248
19455,0.0
31117,0.0
2,2, 3, 2, 0,13,15.00,30.00,Saturday
53,7637156.458192511
101,0.0
5115,2980914.2117013237
15098,77382399.04165365
19455,0.0
31117,0.0
2,2, 3, 2, 0,13,30.00,45.00,Saturday
53,7637156.458192511
101,0.0
5115,2980914.2117013237
15098,78016895.17906612
19455,0.0
31117,0.0
2,2, 3, 2, 0,13,45.00,60.00,Saturday
53,7637156.458192511
101,0.0
5115,2980914.2117013237
15098,78639355.4501436
19455,0.0
31117,0.0
2,2, 3, 2, 0,13, 0.00,60.00,Saturday
54,30548625.832770046
102,0.0
5116,11923656.846805295
15099,308206716.6049259
19456,0.0
31118,0.0
2,2, 3, 2, 0,14, 0.00,15.00,Saturday
53,7637156.458192511
101,0.0
5115,2980914.2117013237
15098,79248627.41068669
19455,0.0
31117,0.0
2,2, 3, 2, 0,14,15.00,30.00,Saturday
53,7637156.458192511
101,0.0
5115,2980914.2117013237
15098,79843640.18071729
19455,0.0
31117,0.0
2,2, 3, 2, 0,14,30.00,45.00,Saturday
53,7637156.458192511
101,0.0
5115,2980914.2117013237
15098,78082852.42163196
19455,0.0
31117,0.0
2,2, 3, 2, 0,14,45.00,60.00,Saturday
53,7637156.458192511
101,0.0
5115,2980914.2117013237
15098,76310399.38920736
19455,0.0
31117,0.0
2,2, 3, 2, 0,14, 0.00,60.00,Saturday
54,30548625.832770046
102,0.0
5116,11923656.846805295
15099,313485519.40224326
19456,0.0
31118,0.0
2,2, 3, 2, 0,15, 0.00,15.00,Saturday
53,7637156.458192511
101,0.0
5115,2980914.2117013237
15098,74528828.65411155
19455,0.0
31117,0.0
2,2, 3, 2, 0,15,15.00,30.00,Saturday
53,7637156.458192511
101,0.0
5115,2980914.2117013237
15098,72740431.81615447
19455,0.0
31117,0.0
2,2, 3, 2, 0,15,30.00,45.00,Saturday
53,7637156.458192511
101,0.0
5115,2980914.2117013237
15098,68485591.82741994
19455,0.0
31117,0.0
2,2, 3, 2, 0,15,45.00,60.00,Saturday
53,7637156.458192511
101,0.0
5115,2980914.2117013237
15098,64227170.032727115
19455,0.0
31117,0.0
2,2, 3, 2, 0,15, 0.00,60.00,Saturday
54,30548625.832770046
102,0.0
5116,11923656.846805295
15099,279982022.33041304
19456,0.0
31118,0.0
2,2, 3, 2, 0,16, 0.00,15.00,Saturday
53,7637156.458192511
101,0.0
5115,2980914.2117013237
15098,59967095.40128571
19455,0.0
31117,0.0
2,2, 3, 2, 0,16,15.00,30.00,Saturday
53,7637156.458192511
101,0.0
5115,2980914.2117013237
15098,55707264.173822366
19455,0.0
31117,0.0
2,2, 3, 2, 0,16,30.00,45.00,Saturday
53,7637156.458192511
101,0.0
5115,2980914.2117013237
15098,49408267.55305994
19455,0.0
31117,0.0
2,2, 3, 2, 0,16,45.00,60.00,Saturday
53,7637156.458192511
101,0.0
5115,2980914.2117013237
15098,43140999.20393443
19455,0.0
31117,0.0
2,2, 3, 2, 0,16, 0.00,60.00,Saturday
54,30548625.832770046
102,0.0
5116,11923656.846805295
15099,208223626.33210245
19456,0.0
31118,0.0
2,2, 3, 2, 0,17, 0.00,15.00,Saturday
53,7637156.458192511
101,0.0
5115,2980914.2117013237