Program Version,EnergyPlus, Version 23.2.0-7636e6b3e9, YMD=2024.02.28 13:33
1,5,Environment Title[],Latitude[deg],Longitude[deg],Time Zone[],Elevation[m]
2,8,Day of Simulation[],Month[],Day of Month[],DST Indicator[1=yes 0=no],Hour[],StartMinute[],EndMinute[],DayType
3,5,Cumulative Day of Simulation[],Month[],Day of Month[],DST Indicator[1=yes 0=no],DayType  ! When Daily Meters Requested
4,2,Cumulative Days of Simulation[],Month[]  ! When Monthly Meters Requested
5,1,Cumulative Days of Simulation[] ! When Run Period Meters Requested
6,1,Calendar Year of Simulation[] ! When Annual Meters Requested
358,1,Electricity:Facility [J] !TimeStep
5420,1,InteriorEquipment:Electricity [J] !TimeStep
406,1,InteriorLights:Electricity [J] !TimeStep
359,1,Electricity:Facility [J] !Hourly
5421,1,InteriorEquipment:Electricity [J] !Hourly
407,1,InteriorLights:Electricity [J] !Hourly
360,7,Electricity:Facility [J] !Daily [Value,Min,Hour,Minute,Max,Hour,Minute]
5422,7,InteriorEquipment:Electricity [J] !Daily [Value,Min,Hour,Minute,Max,Hour,Minute]
408,7,InteriorLights:Electricity [J] !Daily [Value,Min,Hour,Minute,Max,Hour,Minute]
361,9,Electricity:Facility [J] !Monthly [Value,Min,Day,Hour,Minute,Max,Day,Hour,Minute]
5423,9,InteriorEquipment:Electricity [J] !Monthly [Value,Min,Day,Hour,Minute,Max,Day,Hour,Minute]
409,9,InteriorLights:Electricity [J] !Monthly [Value,Min,Day,Hour,Minute,Max,Day,Hour,Minute]
363,11,Electricity:Facility [J] !RunPeriod [Value,Min,Month,Day,Hour,Minute,Max,Month,Day,Hour,Minute]
5425,11,InteriorEquipment:Electricity [J] !RunPeriod [Value,Min,Month,Day,Hour,Minute,Max,Month,Day,Hour,Minute]
411,11,InteriorLights:Electricity [J] !RunPeriod [Value,Min,Month,Day,Hour,Minute,Max,Month,Day,Hour,Minute]
20359,1,HeatRejection:Electricity [J] !TimeStep
20360,1,HeatRejection:Electricity [J] !Hourly
20361,7,HeatRejection:Electricity [J] !Daily [Value,Min,Hour,Minute,Max,Hour,Minute]
20362,9,HeatRejection:Electricity [J] !Monthly [Value,Min,Day,Hour,Minute,Max,Day,Hour,Minute]
20364,11,HeatRejection:Electricity [J] !RunPeriod [Value,Min,Month,Day,Hour,Minute,Max,Month,Day,Hour,Minute]
16014,1,ElectricityProduced:Facility [J] !Hourly
31980,1,Carbon Equivalent:Facility [kg] !Hourly
16015,7,ElectricityProduced:Facility [J] !Daily [Value,Min,Hour,Minute,Max,Hour,Minute]
31981,7,Carbon Equivalent:Facility [kg] !Daily [Value,Min,Hour,Minute,Max,Hour,Minute]
16016,9,ElectricityProduced:Facility [J] !Monthly [Value,Min,Day,Hour,Minute,Max,Day,Hour,Minute]
31982,9,Carbon Equivalent:Facility [kg] !Monthly [Value,Min,Day,Hour,Minute,Max,Day,Hour,Minute]
16018,11,ElectricityProduced:Facility [J] !RunPeriod [Value,Min,Month,Day,Hour,Minute,Max,Month,Day,Hour,Minute]
31984,11,Carbon Equivalent:Facility [kg] !RunPeriod [Value,Min,Month,Day,Hour,Minute,Max,Month,Day,Hour,Minute]
16013,1,ElectricityProduced:Facility [J] !TimeStep
31979,1,Carbon Equivalent:Facility [kg] !TimeStep
End of Data Dictionary
1,GREEN STUDIO (01-01:31-12),  27.97, -82.53,  -5.00,   6.00
2,1, 1, 1, 0, 1, 0.00,10.00,Tuesday
358,5076168.194493667
406,0.0
5420,1987276.1411342165
16013,0.0
20359,0.0
31979,0.0
2,1, 1, 1, 0, 1,10.00,20.00,Tuesday
358,5076168.194493667
406,0.0
5420,1987276.1411342165
16013,0.0
20359,0.0
31979,0.0
2,1, 1, 1, 0, 1,20.00,30.00,Tuesday
358,5076168.194493667
406,0.0
5420,1987276.1411342165
16013,0.0
20359,0.0
31979,0.0
2,1, 1, 1, 0, 1,30.00,40.00,Tuesday
358,5076168.194493667
406,0.0
5420,1987276.1411342165
16013,0.0
20359,0.0
31979,0.0
2,1, 1, 1, 0, 1,40.00,50.00,Tuesday
358,5076168.194493667
406,0.0
5420,1987276.1411342165
16013,0.0
20359,0.0
31979,0.0
2,1, 1, 1, 0, 1,50.00,60.00,Tuesday
358,5076168.194493667
406,0.0
5420,1987276.1411342165
16013,0.0
20359,0.0
31979,0.0
2,1, 1, 1, 0, 1, 0.00,60.00,Tuesday
359,30457009.166962
407,0.0
5421,11923656.8468053
16014,0.0
20360,0.0
31980,0.0
2,1, 1, 1, 0, 2, 0.00,10.00,Tuesday
358,5076168.194493667
406,0.0
5420,1987276.1411342165
16013,0.0
20359,0.0
31979,0.0
2,1, 1, 1, 0, 2,10.00,20.00,Tuesday
358,5076168.194493667
406,0.0
5420,1987276.1411342165
16013,0.0
20359,0.0
31979,0.0
2,1, 1, 1, 0, 2,20.00,30.00,Tuesday
358,5076168.194493667
406,0.0
5420,1987276.1411342165
16013,0.0
20359,0.0
31979,0.0
2,1, 1, 1, 0, 2,30.00,40.00,Tuesday
358,5076168.194493667
406,0.0
5420,1987276.1411342165
16013,0.0
20359,0.0
31979,0.0
2,1, 1, 1, 0, 2,40.00,50.00,Tuesday
358,5076168.194493667
406,0.0
5420,1987276.1411342165
16013,0.0
20359,0.0
31979,0.0
2,1, 1, 1, 0, 2,50.00,60.00,Tuesday
358,5076168.194493667
406,0.0
5420,1987276.1411342165
16013,0.0
20359,0.0
31979,0.0
2,1, 1, 1, 0, 2, 0.00,60.00,Tuesday
359,30457009.166962
407,0.0
5421,11923656.8468053
16014,0.0
20360,0.0
31980,0.0
2,1, 1, 1, 0, 3, 0.00,10.00,Tuesday
358,5076168.194493667
406,0.0
5420,1987276.1411342165
16013,0.0
20359,0.0
31979,0.0
2,1, 1, 1, 0, 3,10.00,20.00,Tuesday
358,5076168.194493667
406,0.0
5420,1987276.1411342165
16013,0.0
20359,0.0
31979,0.0
2,1, 1, 1, 0, 3,20.00,30.00,Tuesday
358,5076168.194493667
406,0.0
5420,1987276.1411342165
16013,0.0
20359,0.0
31979,0.0
2,1, 1, 1, 0, 3,30.00,40.00,Tuesday
358,5076168.194493667
406,0.0
5420,1987276.1411342165
16013,0.0
20359,0.0
31979,0.0
2,1, 1, 1, 0, 3,40.00,50.00,Tuesday
358,5076168.194493667
406,0.0
5420,1987276.1411342165
16013,0.0
20359,0.0
31979,0.0
2,1, 1, 1, 0, 3,50.00,60.00,Tuesday
358,5076168.194493667
406,0.0
5420,1987276.1411342165
16013,0.0
20359,0.0
31979,0.0
2,1, 1, 1, 0, 3, 0.00,60.00,Tuesday
359,30457009.166962
407,0.0
5421,11923656.8468053
16014,0.0
20360,0.0
31980,0.0
2,1, 1, 1, 0, 4, 0.00,10.00,Tuesday
358,5076168.194493667
406,0.0
5420,1987276.1411342165
16013,0.0
20359,0.0
31979,0.0
2,1, 1, 1, 0, 4,10.00,20.00,Tuesday
358,5076168.194493667
406,0.0
5420,1987276.1411342165
16013,0.0
20359,0.0
31979,0.0
2,1, 1, 1, 0, 4,20.00,30.00,Tuesday
358,5076168.194493667
406,0.0
5420,1987276.1411342165
16013,0.0
20359,0.0
31979,0.0
2,1, 1, 1, 0, 4,30.00,40.00,Tuesday
358,5076168.194493667
406,0.0
5420,1987276.1411342165
16013,0.0
20359,0.0
31979,0.0
2,1, 1, 1, 0, 4,40.00,50.00,Tuesday
358,5076168.194493667
406,0.0
5420,1987276.1411342165
16013,0.0
20359,0.0
31979,0.0
2,1, 1, 1, 0, 4,50.00,60.00,Tuesday
358,5076168.194493667
406,0.0
5420,1987276.1411342165
16013,0.0
20359,0.0
31979,0.0
2,1, 1, 1, 0, 4, 0.00,60.00,Tuesday
359,30457009.166962
407,0.0
5421,11923656.8468053
16014,0.0
20360,0.0
31980,0.0
2,1, 1, 1, 0, 5, 0.00,10.00,Tuesday
358,5076168.194493667
406,0.0
5420,1987276.1411342165
16013,0.0
20359,0.0
31979,0.0
2,1, 1, 1, 0, 5,10.00,20.00,Tuesday
358,5076168.194493667
406,0.0
5420,1987276.1411342165
16013,0.0
20359,0.0
31979,0.0
2,1, 1, 1, 0, 5,20.00,30.00,Tuesday
358,5076168.194493667
406,0.0
5420,1987276.1411342165
16013,0.0
20359,0.0
31979,0.0
2,1, 1, 1, 0, 5,30.00,40.00,Tuesday
358,5076168.194493667
406,0.0
5420,1987276.1411342165
16013,0.0
20359,0.0
31979,0.0
2,1, 1, 1, 0, 5,40.00,50.00,Tuesday
358,5076168.194493667
406,0.0
5420,1987276.1411342165
16013,0.0
20359,0.0
31979,0.0
2,1, 1, 1, 0, 5,50.00,60.00,Tuesday
358,5076168.194493667
406,0.0
5420,1987276.1411342165
16013,0.0
20359,0.0
31979,0.0
2,1, 1, 1, 0, 5, 0.00,60.00,Tuesday
359,30457009.166962
407,0.0
5421,11923656.8468053
16014,0.0
20360,0.0
31980,0.0
2,1, 1, 1, 0, 6, 0.00,10.00,Tuesday
358,5076168.194493667
406,0.0
5420,1987276.1411342165
16013,0.0
20359,0.0
31979,0.0
2,1, 1, 1, 0, 6,10.00,20.00,Tuesday
358,5076168.194493667
406,0.0
5420,1987276.1411342165
16013,0.0
20359,0.0
31979,0.0
2,1, 1, 1, 0, 6,20.00,30.00,Tuesday
358,5076168.194493667
406,0.0
5420,1987276.1411342165
16013,0.0
20359,0.0
31979,0.0
2,1, 1, 1, 0, 6,30.00,40.00,Tuesday
358,5076168.194493667
406,0.0
5420,1987276.1411342165
16013,0.0
20359,0.0
31979,0.0
2,1, 1, 1, 0, 6,40.00,50.00,Tuesday
358,5076168.194493667
406,0.0
5420,1987276.1411342165
16013,0.0
20359,0.0
31979,0.0
2,1, 1, 1, 0, 6,50.00,60.00,Tuesday
358,5076168.194493667
406,0.0
5420,1987276.1411342165
16013,0.0
20359,0.0
31979,0.0
2,1, 1, 1, 0, 6, 0.00,60.00,Tuesday
359,30457009.166962
407,0.0
5421,11923656.8468053
16014,0.0
20360,0.0
31980,0.0
2,1, 1, 1, 0, 7, 0.00,10.00,Tuesday
358,5240557.802493666
406,164389.608
5420,1987276.1411342165
16013,0.0
20359,0.0
31979,0.0
2,1, 1, 1, 0, 7,10.00,20.00,Tuesday
358,5240557.802493666
406,164389.608
5420,1987276.1411342165
16013,0.0
20359,0.0
31979,0.0
2,1, 1, 1, 0, 7,20.00,30.00,Tuesday
358,5240557.802493666
406,164389.608
5420,1987276.1411342165
16013,0.0
20359,0.0
31979,0.0
2,1, 1, 1, 0, 7,30.00,40.00,Tuesday
358,5240557.802493666
406,164389.608
5420,1987276.1411342165
16013,0.0
20359,0.0
31979,0.0
2,1, 1, 1, 0, 7,40.00,50.00,Tuesday
358,5240557.802493666
406,164389.608
5420,1987276.1411342165
16013,0.0
20359,0.0
31979,0.0
2,1, 1, 1, 0, 7,50.00,60.00,Tuesday
358,5240557.802493666
406,164389.608
5420,1987276.1411342165
16013,0.0
20359,0.0
31979,0.0
2,1, 1, 1, 0, 7, 0.00,60.00,Tuesday
359,31443346.814961996
407,986337.648
5421,11923656.8468053
16014,0.0
20360,0.0
31980,0.0
2,1, 1, 1, 0, 8, 0.00,10.00,Tuesday
358,23929532.713518057
406,3040591.9319999996
5420,6507321.240505918
16013,0.0
20359,0.0
31979,0.0
2,1, 1, 1, 0, 8,10.00,20.00,Tuesday
358,28200611.06109997
406,3040591.9319999996
5420,6507321.240505918
16013,0.0
20359,0.0
31979,0.0
2,1, 1, 1, 0, 8,20.00,30.00,Tuesday
358,28308697.38353964
406,3031464.114421612
5420,6507321.240505918
16013,1868465.603188851
20359,0.0
31979,0.0
2,1, 1, 1, 0, 8,30.00,40.00,Tuesday
358,28244737.01469894
406,3017999.2588861044
5420,6507321.240505918
16013,3425666.0975171532
20359,0.0
31979,0.0
2,1, 1, 1, 0, 8,40.00,50.00,Tuesday
358,28532908.732783925
406,2999482.0329823247
5420,6507321.240505918
16013,4982889.390928207
20359,0.0
31979,0.0
2,1, 1, 1, 0, 8,50.00,60.00,Tuesday
358,28535625.294908836
406,2975801.579046273
5420,6507321.240505918
16013,6540174.579161879
20359,0.0
31979,0.0
2,1, 1, 1, 0, 8, 0.00,60.00,Tuesday
359,165752112.20054936
407,18105930.849336315
5421,39043927.443035506
16014,16817195.67079609
20360,0.0
31980,0.0
2,1, 1, 1, 0, 9, 0.00,10.00,Tuesday
358,77650661.7847253
406,23470975.944428712
5420,33314568.492505938
16013,8097534.5284346845
20359,0.0
31979,0.0
2,1, 1, 1, 0, 9,10.00,20.00,Tuesday
358,78397216.70501032
406,23146886.38196187
5420,33314568.492505938
16013,9654973.602785414
20359,0.0
31979,0.0
2,1, 1, 1, 0, 9,20.00,30.00,Tuesday
358,78564613.58070832
406,22818665.48063755
5420,33314568.492505938
16013,11212493.157676311
20359,0.0
31979,0.0
2,1, 1, 1, 0, 9,30.00,40.00,Tuesday
358,79332098.60735461
406,22167720.350941487
5420,33314568.492505938
16013,14172172.010228299
20359,0.0
31979,0.0
2,1, 1, 1, 0, 9,40.00,50.00,Tuesday
358,79917440.52606274
406,21501350.262449373
5420,33314568.492505938
16013,17132161.1656584
20359,0.0
31979,0.0
2,1, 1, 1, 0, 9,50.00,60.00,Tuesday
358,88611365.19149253
406,20820427.11398733
5420,33314568.492505938
16013,20094003.09305862
20359,0.0
31979,0.0
2,1, 1, 1, 0, 9, 0.00,60.00,Tuesday
359,482473396.3953538
407,133926025.53440632
5421,199887410.95503563
16014,80363337.55784173
20360,0.0
31980,0.0
2,1, 1, 1, 0,10, 0.00,10.00,Tuesday
358,126108898.3435581
406,20149155.483416513
5420,59625431.371200025
16013,23057062.594458327
20359,0.0
31979,0.0
2,1, 1, 1, 0,10,10.00,20.00,Tuesday
358,136797837.07448852
406,19472985.18483663
5420,59625431.371200025
16013,26021169.054455996
20359,0.0
31979,0.0
2,1, 1, 1, 0,10,20.00,30.00,Tuesday
358,137220206.2553673
406,18792494.0346161
5420,59625431.371200025
16013,28986348.432230745
20359,0.0
31979,0.0
2,1, 1, 1, 0,10,30.00,40.00,Tuesday
358,137580195.42332247
406,18783325.83819704
5420,59625431.371200025
16013,29192569.05314079
20359,0.0
31979,0.0
2,1, 1, 1, 0,10,40.00,50.00,Tuesday
358,137638204.64681342
406,18768254.09329798
5420,59625431.371200025
16013,29399059.319047336
20359,0.0
31979,0.0
2,1, 1, 1, 0,10,50.00,60.00,Tuesday
358,137702163.63982967
406,18748364.1502552
5420,59625431.371200025
16013,29605802.259534575
20359,0.0
31979,0.0
2,1, 1, 1, 0,10, 0.00,60.00,Tuesday
359,813047505.3833795
407,114714578.78461945
5421,357752588.22720015
16014,166262010.71286777
20360,0.0
31980,0.0
2,1, 1, 1, 0,11, 0.00,10.00,Tuesday
358,143925656.2569151
406,21155201.4635074
5420,60648374.21520004
16013,29812777.423262864
20359,0.0
31979,0.0
2,1, 1, 1, 0,11,10.00,20.00,Tuesday
358,142670277.75679398
406,21139409.50662978
5420,60648374.21520004
16013,30019963.645657737
20359,0.0
31979,0.0
2,1, 1, 1, 0,11,20.00,30.00,Tuesday
358,145356083.54331854
406,21120427.60907904
5420,60648374.21520004
16013,30227340.37721105
20359,0.0
31979,0.0
2,1, 1, 1, 0,11,30.00,40.00,Tuesday
358,145494838.93701842
406,20894543.4462878
5420,60648374.21520004
16013,31319937.74561107
20359,0.0
31979,0.0
2,1, 1, 1, 0,11,40.00,50.00,Tuesday
358,146011331.4764174
406,20668545.76442914
5420,60648374.21520004
16013,32412839.288445167
20359,0.0
31979,0.0
2,1, 1, 1, 0,11,50.00,60.00,Tuesday
358,146480693.98296478
406,20442624.7042958
5420,60648374.21520004
16013,33506057.607947875
20359,0.0
31979,0.0
2,1, 1, 1, 0,11, 0.00,60.00,Tuesday
359,869938881.9534281
407,125420752.49422896
5421,363890245.2912003
16014,187298916.08813578
20360,0.0
31980,0.0
2,1, 1, 1, 0,12, 0.00,10.00,Tuesday
358,152178494.87238967
406,20386881.83457341
5420,60648374.21520004
16013,34599607.60721055
20359,0.0
31979,0.0
2,1, 1, 1, 0,12,10.00,20.00,Tuesday
358,151147247.18403798
406,20167783.303727906
5420,60648374.21520004
16013,35693507.14898159
20359,0.0
31979,0.0
2,1, 1, 1, 0,12,20.00,30.00,Tuesday
358,150484103.2258849
406,19951919.631846268
5420,60648374.21520004
16013,36787777.87425907
20359,0.0
31979,0.0
2,1, 1, 1, 0,12,30.00,40.00,Tuesday
358,149590036.32727975
406,19327297.218285758
5420,60648374.21520004
16013,40019850.168701045
20359,0.0
31979,0.0
2,1, 1, 1, 0,12,40.00,50.00,Tuesday
358,148966378.18669438
406,18760953.28643944
5420,60648374.21520004
16013,43254112.172493726
20359,0.0
31979,0.0
2,1, 1, 1, 0,12,50.00,60.00,Tuesday
358,148607071.24841762
406,18301240.4406109
5420,60648374.21520004
16013,46490767.807600036
20359,0.0
31979,0.0
2,1, 1, 1, 0,12, 0.00,60.00,Tuesday
359,900973331.0447043
407,116896075.71548368
5421,363890245.2912003
16014,236845622.77924603
20360,0.0
31980,0.0
2,1, 1, 1, 0,13, 0.00,10.00,Tuesday
358,118450077.67028406
406,11497123.223712584
5420,48056144.9952
16013,49730062.83213672
20359,0.0
31979,0.0
2,1, 1, 1, 0,13,10.00,20.00,Tuesday
358,118088064.43813263
406,11300491.158497447
5420,48056144.9952
16013,52972293.6068908
20359,0.0
31979,0.0
2,1, 1, 1, 0,13,20.00,30.00,Tuesday
358,117844394.44391267
406,11107943.948994383
5420,48056144.9952
16013,56217817.99624352
20359,0.0
31979,0.0
2,1, 1, 1, 0,13,30.00,40.00,Tuesday
358,117982335.50998528
406,11267122.513085749
5420,48056144.9952
16013,53031006.26617152
20359,0.0
31979,0.0
2,1, 1, 1, 0,13,40.00,50.00,Tuesday
358,118126419.1708559
406,11425843.440540742
5420,48056144.9952
16013,49845133.32907772
20359,0.0
31979,0.0
2,1, 1, 1, 0,13,50.00,60.00,Tuesday
358,118318006.23529015
406,11625490.494703902
5420,48056144.9952
16013,46660172.42995852
20359,0.0
31979,0.0
2,1, 1, 1, 0,13, 0.00,60.00,Tuesday
359,708809297.4684607
407,68224014.77953482
5421,288336869.9712
16014,308456486.4604788
20360,0.0
31980,0.0
2,1, 1, 1, 0,14, 0.00,10.00,Tuesday
358,151853123.0726283
406,19244498.758730255
5420,60648374.21520004
16013,43476116.92584143
20359,0.0
31979,0.0
2,1, 1, 1, 0,14,10.00,20.00,Tuesday
358,152138553.22190148
406,19785881.32186718
5420,60648374.21520004
16013,40292980.84435783
20359,0.0
31979,0.0
2,1, 1, 1, 0,14,20.00,30.00,Tuesday
358,152034384.1439526
406,20375514.652160402
5420,60648374.21520004
16013,37110800.15438076
20359,0.0
31979,0.0
2,1, 1, 1, 0,14,30.00,40.00,Tuesday
358,151544699.42002988
406,20547094.500777636
5420,60648374.21520004
16013,36121187.77627933
20359,0.0
31979,0.0
2,1, 1, 1, 0,14,40.00,50.00,Tuesday
358,151292733.6722728
406,20746064.48582706
5420,60648374.21520004
16013,35131666.000353515
20359,0.0
31979,0.0
2,1, 1, 1, 0,14,50.00,60.00,Tuesday
358,151182075.0735749
406,20945505.53026024
5420,60648374.21520004
16013,34142251.37128405
20359,0.0
31979,0.0
2,1, 1, 1, 0,14, 0.00,60.00,Tuesday
359,910045568.60436
407,121644559.24962276
5421,363890245.2912003
16014,226275003.07249695
20360,0.0
31980,0.0
2,1, 1, 1, 0,15, 0.00,10.00,Tuesday
358,148268624.5616342
406,21144149.691567026
5420,60648374.21520004
16013,33152965.701010734
20359,0.0
31979,0.0
2,1, 1, 1, 0,15,10.00,20.00,Tuesday
358,148765561.26336643
406,21342862.339457303
5420,60648374.21520004
16013,32163836.898748733
20359,0.0
31979,0.0
2,1, 1, 1, 0,15,20.00,30.00,Tuesday
358,149055819.37619942
406,21541374.608597223
5420,60648374.21520004
16013,31174900.280628078
20359,0.0
31979,0.0
2,1, 1, 1, 0,15,30.00,40.00,Tuesday
358,150264404.95363292
406,21505350.086751163
5420,60648374.21520004
16013,31126453.194529254
20359,0.0
31979,0.0
2,1, 1, 1, 0,15,40.00,50.00,Tuesday
358,150144948.15338573
406,21463593.473800294
5420,60648374.21520004
16013,31079096.563350618
20359,0.0
31979,0.0
2,1, 1, 1, 0,15,50.00,60.00,Tuesday
358,149876589.814436
406,21415117.33942054
5420,60648374.21520004
16013,31033175.527535368
20359,0.0
31979,0.0
2,1, 1, 1, 0,15, 0.00,60.00,Tuesday
359,896375948.1226547
407,128412447.53959356
5421,363890245.2912003
16014,189730428.16580278
20360,0.0
31980,0.0
2,1, 1, 1, 0,16, 0.00,10.00,Tuesday
358,148167855.20685962
406,20556388.459930386
5420,60648374.21520004
16013,30989160.90023694
20359,0.0
31979,0.0
2,1, 1, 1, 0,16,10.00,20.00,Tuesday
358,149324477.5469776
406,20521154.146117747
5420,60648374.21520004
16013,30947706.788939275
20359,0.0
31979,0.0
2,1, 1, 1, 0,16,20.00,30.00,Tuesday
358,150355125.44598588
406,20477807.29847499
5420,60648374.21520004
16013,30909741.14708344
20359,0.0
31979,0.0
2,1, 1, 1, 0,16,30.00,40.00,Tuesday
358,152163219.51469013
406,21120886.724183597
5420,60648374.21520004
16013,28249138.41775369
20359,0.0
31979,0.0
2,1, 1, 1, 0,16,40.00,50.00,Tuesday
358,153840809.71790445
406,21758957.10091058
5420,60648374.21520004
16013,25588737.189257532
20359,0.0
31979,0.0
2,1, 1, 1, 0,16,50.00,60.00,Tuesday
358,155454698.2219248
406,22391882.412544653
5420,60648374.21520004
16013,22928485.310397252
20359,0.0
31979,0.0
2,1, 1, 1, 0,16, 0.00,60.00,Tuesday
359,909306185.6543425
407,126827076.14216195
5421,363890245.2912003
16014,169612969.75366813
20360,0.0
31980,0.0
2,1, 1, 1, 0,17, 0.00,10.00,Tuesday
358,154393280.74730417
406,23049136.866331916
5420,60648374.21520004
16013,20268314.805098943
20359,0.0
31979,0.0
2,1, 1, 1, 0,17,10.00,20.00,Tuesday
358,154639042.17034692
406,23690651.309513714
5420,60648374.21520004
16013,17608137.94211079
20359,0.0
31979,0.0
2,1, 1, 1, 0,17,20.00,30.00,Tuesday
358,154951482.54410303
406,24316715.786477834
5420,60648374.21520004
16013,14951244.674274735
20359,0.0
31979,0.0
2,1, 1, 1, 0,17,30.00,40.00,Tuesday
358,129049242.69205303
406,24765215.528614845
5420,60648374.21520004
16013,12978169.393354852
20359,0.0
31979,0.0
2,1, 1, 1, 0,17,40.00,50.00,Tuesday
358,130569097.44778663
406,25205236.730116177
5420,60648374.21520004
16013,11005198.309673956
20359,0.0
31979,0.0
2,1, 1, 1, 0,17,50.00,60.00,Tuesday
358,131181585.3196208
406,25637226.02108101
5420,60648374.21520004
16013,9032329.964025283
20359,0.0
31979,0.0
2,1, 1, 1, 0,17, 0.00,60.00,Tuesday
359,854783730.9212146
407,146664182.2421355
5421,363890245.2912003
16014,85843395.08853856
20360,0.0
31980,0.0
2,1, 1, 1, 0,18, 0.00,10.00,Tuesday
358,131696331.95394664
406,26462539.83079644
5420,58321635.18050595
16013,7059560.581296122
20359,0.0
31979,0.0
2,1, 1, 1, 0,18,10.00,20.00,Tuesday
358,132322885.65067591
406,26983093.90714567
5420,58321635.18050595
16013,5086881.44569019
20359,0.0
31979,0.0
2,1, 1, 1, 0,18,20.00,30.00,Tuesday
358,132811289.89809427
406,27365056.41623765
5420,58321635.18050595
16013,3114273.7793208417
20359,0.0
31979,0.0
2,1, 1, 1, 0,18,30.00,40.00,Tuesday
358,132951560.29766129
406,27496343.948273476
5420,58321635.18050595
16013,2567133.8369796164
20359,0.0
31979,0.0
2,1, 1, 1, 0,18,40.00,50.00,Tuesday
358,133157660.19669645
406,27683135.748000003
5420,58321635.18050595
16013,0.0
20359,0.0
31979,0.0
2,1, 1, 1, 0,18,50.00,60.00,Tuesday
358,134366171.8469643
406,27683135.748000003
5420,58321635.18050595
16013,0.0
20359,0.0
31979,0.0
2,1, 1, 1, 0,18, 0.00,60.00,Tuesday
359,797305899.8440387
407,163673305.59845325
5421,349929811.08303565
16014,17827849.643286772
20360,0.0
31980,0.0
2,1, 1, 1, 0,19, 0.00,10.00,Tuesday
358,97202437.85085411
406,27620500.284
5420,34337511.33650594
16013,0.0
20359,0.0
31979,0.0
2,1, 1, 1, 0,19,10.00,20.00,Tuesday
358,97098877.44050196
406,27620500.284
5420,34337511.33650594
16013,0.0
20359,0.0
31979,0.0
2,1, 1, 1, 0,19,20.00,30.00,Tuesday
358,106284610.14179967
406,27620500.284
5420,34337511.33650594
16013,0.0
20359,0.0
31979,0.0
2,1, 1, 1, 0,19,30.00,40.00,Tuesday
358,121062792.45585118
406,27620500.284
5420,34337511.33650594
16013,0.0
20359,0.0
31979,0.0
2,1, 1, 1, 0,19,40.00,50.00,Tuesday
358,121389217.91741079
406,27620500.284
5420,34337511.33650594
16013,0.0
20359,0.0
31979,0.0
2,1, 1, 1, 0,19,50.00,60.00,Tuesday
358,121490500.91012663
406,27620500.284
5420,34337511.33650594
16013,0.0
20359,0.0
31979,0.0
2,1, 1, 1, 0,19, 0.00,60.00,Tuesday
359,664528436.7165444
407,165723001.70400003
5421,206025068.01903567
16014,0.0
20360,0.0
31980,0.0
2,1, 1, 1, 0,20, 0.00,10.00,Tuesday
358,13975660.453865366
406,3356504.3160000006
5420,7530264.084505921
16013,0.0
20359,0.0
31979,0.0
2,1, 1, 1, 0,20,10.00,20.00,Tuesday
358,13975660.453865366
406,3356504.3160000006
5420,7530264.084505921
16013,0.0
20359,0.0
31979,0.0
2,1, 1, 1, 0,20,20.00,30.00,Tuesday
358,13975660.453865366
406,3356504.3160000006
5420,7530264.084505921
16013,0.0
20359,0.0
31979,0.0
2,1, 1, 1, 0,20,30.00,40.00,Tuesday
358,13975660.453865366
406,3356504.3160000006
5420,7530264.084505921
16013,0.0
20359,0.0
31979,0.0
2,1, 1, 1, 0,20,40.00,50.00,Tuesday
358,13975660.453865366
406,3356504.3160000006
5420,7530264.084505921
16013,0.0
20359,0.0
31979,0.0
2,1, 1, 1, 0,20,50.00,60.00,Tuesday
358,13975660.453865366
406,3356504.3160000006
5420,7530264.084505921
16013,0.0
20359,0.0
31979,0.0
2,1, 1, 1, 0,20, 0.00,60.00,Tuesday
359,83853962.7231922
407,20139025.896
5421,45181584.50703553
16014,0.0
20360,0.0
31980,0.0
2,1, 1, 1, 0,21, 0.00,10.00,Tuesday
358,9455615.354493668
406,3356504.3160000006
5420,3010218.9851342137
16013,0.0
20359,0.0
31979,0.0
2,1, 1, 1, 0,21,10.00,20.00,Tuesday
358,9455615.354493668
406,3356504.3160000006
5420,3010218.9851342137
16013,0.0
20359,0.0
31979,0.0
2,1, 1, 1, 0,21,20.00,30.00,Tuesday
358,9455615.354493668
406,3356504.3160000006
5420,3010218.9851342137
16013,0.0
20359,0.0
31979,0.0
2,1, 1, 1, 0,21,30.00,40.00,Tuesday
358,9455615.354493668
406,3356504.3160000006
5420,3010218.9851342137
16013,0.0
20359,0.0
31979,0.0
2,1, 1, 1, 0,21,40.00,50.00,Tuesday
358,9455615.354493668
406,3356504.3160000006
5420,3010218.9851342137
16013,0.0
20359,0.0
31979,0.0
2,1, 1, 1, 0,21,50.00,60.00,Tuesday
358,9455615.354493668
406,3356504.3160000006
5420,3010218.9851342137
16013,0.0
20359,0.0
31979,0.0
2,1, 1, 1, 0,21, 0.00,60.00,Tuesday
359,56733692.12696201
407,20139025.896
5421,18061313.91080528
16014,0.0
20360,0.0
31980,0.0
2,1, 1, 1, 0,22, 0.00,10.00,Tuesday
358,8682300.038493669
406,2583189.0000000005
5420,3010218.9851342137
16013,0.0
20359,0.0
31979,0.0
2,1, 1, 1, 0,22,10.00,20.00,Tuesday
358,8682300.038493669
406,2583189.0000000005
5420,3010218.9851342137
16013,0.0
20359,0.0
31979,0.0
2,1, 1, 1, 0,22,20.00,30.00,Tuesday
358,8682300.038493669
406,2583189.0000000005
5420,3010218.9851342137
16013,0.0
20359,0.0
31979,0.0
2,1, 1, 1, 0,22,30.00,40.00,Tuesday
358,8682300.038493669
406,2583189.0000000005
5420,3010218.9851342137
16013,0.0
20359,0.0
31979,0.0
2,1, 1, 1, 0,22,40.00,50.00,Tuesday
358,8682300.038493669
406,2583189.0000000005
5420,3010218.9851342137
16013,0.0
20359,0.0
31979,0.0
2,1, 1, 1, 0,22,50.00,60.00,Tuesday
358,8682300.038493669
406,2583189.0000000005
5420,3010218.9851342137
16013,0.0
20359,0.0
31979,0.0
2,1, 1, 1, 0,22, 0.00,60.00,Tuesday
359,52093800.230962016
407,15499134.000000002
5421,18061313.91080528
16014,0.0
20360,0.0
31980,0.0
2,1, 1, 1, 0,23, 0.00,10.00,Tuesday
358,5076168.194493667
406,0.0
5420,1987276.1411342165
16013,0.0
20359,0.0
31979,0.0
2,1, 1, 1, 0,23,10.00,20.00,Tuesday
358,5076168.194493667
406,0.0
5420,1987276.1411342165
16013,0.0
20359,0.0
31979,0.0
2,1, 1, 1, 0,23,20.00,30.00,Tuesday
358,5076168.194493667
406,0.0
5420,1987276.1411342165
16013,0.0
20359,0.0
31979,0.0
2,1, 1, 1, 0,23,30.00,40.00,Tuesday
358,5076168.194493667
406,0.0
5420,1987276.1411342165
16013,0.0
20359,0.0
31979,0.0
2,1, 1, 1, 0,23,40.00,50.00,Tuesday
358,5076168.194493667
406,0.0
5420,1987276.1411342165
16013,0.0
20359,0.0
31979,0.0
2,1, 1, 1, 0,23,50.00,60.00,Tuesday
358,5076168.194493667
406,0.0
5420,1987276.1411342165
16013,0.0
20359,0.0
31979,0.0
2,1, 1, 1, 0,23, 0.00,60.00,Tuesday
359,30457009.166962
407,0.0
5421,11923656.8468053
16014,0.0
20360,0.0
31980,0.0
2,1, 1, 1, 0,24, 0.00,10.00,Tuesday
358,5076168.194493667
406,0.0
5420,1987276.1411342165
16013,0.0
20359,0.0
31979,0.0
2,1, 1, 1, 0,24,10.00,20.00,Tuesday
358,5076168.194493667
406,0.0
5420,1987276.1411342165
16013,0.0
20359,0.0
31979,0.0
2,1, 1, 1, 0,24,20.00,30.00,Tuesday
358,5076168.194493667
406,0.0
5420,1987276.1411342165
16013,0.0
20359,0.0
31979,0.0
2,1, 1, 1, 0,24,30.00,40.00,Tuesday
358,5076168.194493667
406,0.0
5420,1987276.1411342165
16013,0.0
20359,0.0
31979,0.0
2,1, 1, 1, 0,24,40.00,50.00,Tuesday
358,5076168.194493667
406,0.0
5420,1987276.1411342165
16013,0.0
20359,0.0
31979,0.0
2,1, 1, 1, 0,24,50.00,60.00,Tuesday
358,5076168.194493667
406,0.0
5420,1987276.1411342165
16013,0.0
20359,0.0
31979,0.0
2,1, 1, 1, 0,24, 0.00,60.00,Tuesday
359,30457009.166962
407,0.0
5421,11923656.8468053
16014,0.0
20360,0.0
31980,0.0
3,1, 1, 1, 0,Tuesday
360,9441121169.540813,5076168.194493667, 1,10,155454698.2219248,16,60
408,1486995474.0735757,0.0, 1,10,27683135.748000003,18,50
5422,3812934271.3956337,1987276.1411342165, 1,10,60648374.21520004,11,10
16015,1685333214.9931598,0.0, 1,10,56217817.99624352,13,30
20361,0.0,0.0, 1,10,0.0, 1,10
31981,0.0,0.0, 1,10,0.0, 1,10
2,2, 1, 2, 0, 1, 0.00,10.00,Wednesday
358,5076168.194493667
406,0.0
5420,1987276.1411342165
16013,0.0
20359,0.0
31979,0.0
2,2, 1, 2, 0, 1,10.00,20.00,Wednesday
358,5076168.194493667
406,0.0
5420,1987276.1411342165
16013,0.0
20359,0.0
31979,0.0
2,2, 1, 2, 0, 1,20.00,30.00,Wednesday
358,5076168.194493667
406,0.0
5420,1987276.1411342165
16013,0.0
20359,0.0
31979,0.0
2,2, 1, 2, 0, 1,30.00,40.00,Wednesday
358,5076168.194493667
406,0.0
5420,1987276.1411342165
16013,0.0
20359,0.0
31979,0.0
2,2, 1, 2, 0, 1,40.00,50.00,Wednesday
358,5076168.194493667
406,0.0
5420,1987276.1411342165
16013,0.0
20359,0.0
31979,0.0
2,2, 1, 2, 0, 1,50.00,60.00,Wednesday
358,5076168.194493667
406,0.0
5420,1987276.1411342165
16013,0.0
20359,0.0
31979,0.0
2,2, 1, 2, 0, 1, 0.00,60.00,Wednesday
359,30457009.166962
407,0.0
5421,11923656.8468053
16014,0.0
20360,0.0
31980,0.0
2,2, 1, 2, 0, 2, 0.00,10.00,Wednesday
358,5076168.194493667
406,0.0
5420,1987276.1411342165
16013,0.0
20359,0.0
31979,0.0
2,2, 1, 2, 0, 2,10.00,20.00,Wednesday
358,5076168.194493667
406,0.0
5420,1987276.1411342165
16013,0.0
20359,0.0
31979,0.0
2,2, 1, 2, 0, 2,20.00,30.00,Wednesday
358,5076168.194493667
406,0.0
5420,1987276.1411342165
16013,0.0
20359,0.0
31979,0.0
2,2, 1, 2, 0, 2,30.00,40.00,Wednesday
358,5076168.194493667
406,0.0
5420,1987276.1411342165
16013,0.0
20359,0.0
31979,0.0
2,2, 1, 2, 0, 2,40.00,50.00,Wednesday
358,5076168.194493667
406,0.0
5420,1987276.1411342165
16013,0.0
20359,0.0
31979,0.0
2,2, 1, 2, 0, 2,50.00,60.00,Wednesday
358,5076168.194493667
406,0.0
5420,1987276.1411342165
16013,0.0
20359,0.0
31979,0.0
2,2, 1, 2, 0, 2, 0.00,60.00,Wednesday
359,30457009.166962
407,0.0
5421,11923656.8468053
16014,0.0
20360,0.0
31980,0.0
2,2, 1, 2, 0, 3, 0.00,10.00,Wednesday
358,5076168.194493667
406,0.0
5420,1987276.1411342165
16013,0.0
20359,0.0
31979,0.0
2,2, 1, 2, 0, 3,10.00,20.00,Wednesday
358,5076168.194493667
406,0.0
5420,1987276.1411342165
16013,0.0
20359,0.0
31979,0.0
2,2, 1, 2, 0, 3,20.00,30.00,Wednesday
358,5076168.194493667
406,0.0
5420,1987276.1411342165
16013,0.0
20359,0.0
31979,0.0
2,2, 1, 2, 0, 3,30.00,40.00,Wednesday
358,5076168.194493667
406,0.0
5420,1987276.1411342165
16013,0.0
20359,0.0
31979,0.0
2,2, 1, 2, 0, 3,40.00,50.00,Wednesday
358,5076168.194493667
406,0.0
5420,1987276.1411342165
16013,0.0
20359,0.0
31979,0.0
2,2, 1, 2, 0, 3,50.00,60.00,Wednesday
358,5076168.194493667
406,0.0
5420,1987276.1411342165
16013,0.0
20359,0.0
31979,0.0
2,2, 1, 2, 0, 3, 0.00,60.00,Wednesday
359,30457009.166962
407,0.0
5421,11923656.8468053
16014,0.0
20360,0.0
31980,0.0
2,2, 1, 2, 0, 4, 0.00,10.00,Wednesday
358,5076168.194493667
406,0.0
5420,1987276.1411342165
16013,0.0
20359,0.0
31979,0.0
2,2, 1, 2, 0, 4,10.00,20.00,Wednesday
358,5076168.194493667
406,0.0
5420,1987276.1411342165
16013,0.0
20359,0.0
31979,0.0
2,2, 1, 2, 0, 4,20.00,30.00,Wednesday
358,5076168.194493667
406,0.0
5420,1987276.1411342165
16013,0.0
20359,0.0
31979,0.0
2,2, 1, 2, 0, 4,30.00,40.00,Wednesday
358,5076168.194493667
406,0.0
5420,1987276.1411342165
16013,0.0
20359,0.0
31979,0.0
2,2, 1, 2, 0, 4,40.00,50.00,Wednesday
358,5076168.194493667
406,0.0
5420,1987276.1411342165
16013,0.0
20359,0.0
31979,0.0
2,2, 1, 2, 0, 4,50.00,60.00,Wednesday
358,5076168.194493667
406,0.0
5420,1987276.1411342165
16013,0.0
20359,0.0
31979,0.0
2,2, 1, 2, 0, 4, 0.00,60.00,Wednesday
359,30457009.166962
407,0.0
5421,11923656.8468053
16014,0.0
20360,0.0
31980,0.0
2,2, 1, 2, 0, 5, 0.00,10.00,Wednesday
358,5076168.194493667
406,0.0
5420,1987276.1411342165
16013,0.0
20359,0.0
31979,0.0
2,2, 1, 2, 0, 5,10.00,20.00,Wednesday
358,5076168.194493667
406,0.0
5420,1987276.1411342165
16013,0.0
20359,0.0
31979,0.0
2,2, 1, 2, 0, 5,20.00,30.00,Wednesday
358,5076168.194493667
406,0.0
5420,1987276.1411342165
16013,0.0
20359,0.0
31979,0.0
2,2, 1, 2, 0, 5,30.00,40.00,Wednesday
358,5076168.194493667
406,0.0
5420,1987276.1411342165
16013,0.0
20359,0.0
31979,0.0
2,2, 1, 2, 0, 5,40.00,50.00,Wednesday
358,5076168.194493667
406,0.0
5420,1987276.1411342165
16013,0.0