Program Version,EnergyPlus, Version 23.2.0-7636e6b3e9, YMD=2024.02.21 12:20
1,5,Environment Title[],Latitude[deg],Longitude[deg],Time Zone[],Elevation[m]
2,8,Day of Simulation[],Month[],Day of Month[],DST Indicator[1=yes 0=no],Hour[],StartMinute[],EndMinute[],DayType
3,5,Cumulative Day of Simulation[],Month[],Day of Month[],DST Indicator[1=yes 0=no],DayType  ! When Daily Meters Requested
4,2,Cumulative Days of Simulation[],Month[]  ! When Monthly Meters Requested
5,1,Cumulative Days of Simulation[] ! When Run Period Meters Requested
6,1,Calendar Year of Simulation[] ! When Annual Meters Requested
358,1,Electricity:Facility [J] !TimeStep
5420,1,InteriorEquipment:Electricity [J] !TimeStep
406,1,InteriorLights:Electricity [J] !TimeStep
359,1,Electricity:Facility [J] !Hourly
5421,1,InteriorEquipment:Electricity [J] !Hourly
407,1,InteriorLights:Electricity [J] !Hourly
360,7,Electricity:Facility [J] !Daily [Value,Min,Hour,Minute,Max,Hour,Minute]
5422,7,InteriorEquipment:Electricity [J] !Daily [Value,Min,Hour,Minute,Max,Hour,Minute]
408,7,InteriorLights:Electricity [J] !Daily [Value,Min,Hour,Minute,Max,Hour,Minute]
361,9,Electricity:Facility [J] !Monthly [Value,Min,Day,Hour,Minute,Max,Day,Hour,Minute]
5423,9,InteriorEquipment:Electricity [J] !Monthly [Value,Min,Day,Hour,Minute,Max,Day,Hour,Minute]
409,9,InteriorLights:Electricity [J] !Monthly [Value,Min,Day,Hour,Minute,Max,Day,Hour,Minute]
363,11,Electricity:Facility [J] !RunPeriod [Value,Min,Month,Day,Hour,Minute,Max,Month,Day,Hour,Minute]
5425,11,InteriorEquipment:Electricity [J] !RunPeriod [Value,Min,Month,Day,Hour,Minute,Max,Month,Day,Hour,Minute]
411,11,InteriorLights:Electricity [J] !RunPeriod [Value,Min,Month,Day,Hour,Minute,Max,Month,Day,Hour,Minute]
20359,1,HeatRejection:Electricity [J] !TimeStep
20360,1,HeatRejection:Electricity [J] !Hourly
20361,7,HeatRejection:Electricity [J] !Daily [Value,Min,Hour,Minute,Max,Hour,Minute]
20362,9,HeatRejection:Electricity [J] !Monthly [Value,Min,Day,Hour,Minute,Max,Day,Hour,Minute]
20364,11,HeatRejection:Electricity [J] !RunPeriod [Value,Min,Month,Day,Hour,Minute,Max,Month,Day,Hour,Minute]
16014,1,ElectricityProduced:Facility [J] !Hourly
31980,1,Carbon Equivalent:Facility [kg] !Hourly
16015,7,ElectricityProduced:Facility [J] !Daily [Value,Min,Hour,Minute,Max,Hour,Minute]
31981,7,Carbon Equivalent:Facility [kg] !Daily [Value,Min,Hour,Minute,Max,Hour,Minute]
16016,9,ElectricityProduced:Facility [J] !Monthly [Value,Min,Day,Hour,Minute,Max,Day,Hour,Minute]
31982,9,Carbon Equivalent:Facility [kg] !Monthly [Value,Min,Day,Hour,Minute,Max,Day,Hour,Minute]
16018,11,ElectricityProduced:Facility [J] !RunPeriod [Value,Min,Month,Day,Hour,Minute,Max,Month,Day,Hour,Minute]
31984,11,Carbon Equivalent:Facility [kg] !RunPeriod [Value,Min,Month,Day,Hour,Minute,Max,Month,Day,Hour,Minute]
16013,1,ElectricityProduced:Facility [J] !TimeStep
31979,1,Carbon Equivalent:Facility [kg] !TimeStep
End of Data Dictionary
1,SUMMER DESIGN DAY IN GREEN STUDIO (01-01:31-12) JUN,  27.97, -82.53,  -5.00,   6.00
2,1, 6,15, 0, 1, 0.00,10.00,SummerDesignDay
358,5076168.194493667
406,0.0
5420,1987276.1411342165
16013,0.0
20359,0.0
31979,0.0
2,1, 6,15, 0, 1,10.00,20.00,SummerDesignDay
358,5076168.194493667
406,0.0
5420,1987276.1411342165
16013,0.0
20359,0.0
31979,0.0
2,1, 6,15, 0, 1,20.00,30.00,SummerDesignDay
358,5076168.194493667
406,0.0
5420,1987276.1411342165
16013,0.0
20359,0.0
31979,0.0
2,1, 6,15, 0, 1,30.00,40.00,SummerDesignDay
358,5076168.194493667
406,0.0
5420,1987276.1411342165
16013,0.0
20359,0.0
31979,0.0
2,1, 6,15, 0, 1,40.00,50.00,SummerDesignDay
358,5076168.194493667
406,0.0
5420,1987276.1411342165
16013,0.0
20359,0.0
31979,0.0
2,1, 6,15, 0, 1,50.00,60.00,SummerDesignDay
358,5076168.194493667
406,0.0
5420,1987276.1411342165
16013,0.0
20359,0.0
31979,0.0
2,1, 6,15, 0, 1, 0.00,60.00,SummerDesignDay
359,30457009.166962
407,0.0
5421,11923656.8468053
16014,0.0
20360,0.0
31980,0.0
2,1, 6,15, 0, 2, 0.00,10.00,SummerDesignDay
358,5076168.194493667
406,0.0
5420,1987276.1411342165
16013,0.0
20359,0.0
31979,0.0
2,1, 6,15, 0, 2,10.00,20.00,SummerDesignDay
358,5076168.194493667
406,0.0
5420,1987276.1411342165
16013,0.0
20359,0.0
31979,0.0
2,1, 6,15, 0, 2,20.00,30.00,SummerDesignDay
358,5076168.194493667
406,0.0
5420,1987276.1411342165
16013,0.0
20359,0.0
31979,0.0
2,1, 6,15, 0, 2,30.00,40.00,SummerDesignDay
358,5076168.194493667
406,0.0
5420,1987276.1411342165
16013,0.0
20359,0.0
31979,0.0
2,1, 6,15, 0, 2,40.00,50.00,SummerDesignDay
358,5076168.194493667
406,0.0
5420,1987276.1411342165
16013,0.0
20359,0.0
31979,0.0
2,1, 6,15, 0, 2,50.00,60.00,SummerDesignDay
358,5076168.194493667
406,0.0
5420,1987276.1411342165
16013,0.0
20359,0.0
31979,0.0
2,1, 6,15, 0, 2, 0.00,60.00,SummerDesignDay
359,30457009.166962
407,0.0
5421,11923656.8468053
16014,0.0
20360,0.0
31980,0.0
2,1, 6,15, 0, 3, 0.00,10.00,SummerDesignDay
358,5076168.194493667
406,0.0
5420,1987276.1411342165
16013,0.0
20359,0.0
31979,0.0
2,1, 6,15, 0, 3,10.00,20.00,SummerDesignDay
358,5076168.194493667
406,0.0
5420,1987276.1411342165
16013,0.0
20359,0.0
31979,0.0
2,1, 6,15, 0, 3,20.00,30.00,SummerDesignDay
358,5076168.194493667
406,0.0
5420,1987276.1411342165
16013,0.0
20359,0.0
31979,0.0
2,1, 6,15, 0, 3,30.00,40.00,SummerDesignDay
358,5076168.194493667
406,0.0
5420,1987276.1411342165
16013,0.0
20359,0.0
31979,0.0
2,1, 6,15, 0, 3,40.00,50.00,SummerDesignDay
358,5076168.194493667
406,0.0
5420,1987276.1411342165
16013,0.0
20359,0.0
31979,0.0
2,1, 6,15, 0, 3,50.00,60.00,SummerDesignDay
358,5076168.194493667
406,0.0
5420,1987276.1411342165
16013,0.0
20359,0.0
31979,0.0
2,1, 6,15, 0, 3, 0.00,60.00,SummerDesignDay
359,30457009.166962
407,0.0
5421,11923656.8468053
16014,0.0
20360,0.0
31980,0.0
2,1, 6,15, 0, 4, 0.00,10.00,SummerDesignDay
358,5076168.194493667
406,0.0
5420,1987276.1411342165
16013,0.0
20359,0.0
31979,0.0
2,1, 6,15, 0, 4,10.00,20.00,SummerDesignDay
358,5076168.194493667
406,0.0
5420,1987276.1411342165
16013,0.0
20359,0.0
31979,0.0
2,1, 6,15, 0, 4,20.00,30.00,SummerDesignDay
358,5076168.194493667
406,0.0
5420,1987276.1411342165
16013,0.0
20359,0.0
31979,0.0
2,1, 6,15, 0, 4,30.00,40.00,SummerDesignDay
358,5076168.194493667
406,0.0
5420,1987276.1411342165
16013,0.0
20359,0.0
31979,0.0
2,1, 6,15, 0, 4,40.00,50.00,SummerDesignDay
358,5076168.194493667
406,0.0
5420,1987276.1411342165
16013,0.0
20359,0.0
31979,0.0
2,1, 6,15, 0, 4,50.00,60.00,SummerDesignDay
358,5076168.194493667
406,0.0
5420,1987276.1411342165
16013,0.0
20359,0.0
31979,0.0
2,1, 6,15, 0, 4, 0.00,60.00,SummerDesignDay
359,30457009.166962
407,0.0
5421,11923656.8468053
16014,0.0
20360,0.0
31980,0.0
2,1, 6,15, 0, 5, 0.00,10.00,SummerDesignDay
358,5076168.194493667
406,0.0
5420,1987276.1411342165
16013,0.0
20359,0.0
31979,0.0
2,1, 6,15, 0, 5,10.00,20.00,SummerDesignDay
358,5076168.194493667
406,0.0
5420,1987276.1411342165
16013,0.0
20359,0.0
31979,0.0
2,1, 6,15, 0, 5,20.00,30.00,SummerDesignDay
358,5076168.194493667
406,0.0
5420,1987276.1411342165
16013,0.0
20359,0.0
31979,0.0
2,1, 6,15, 0, 5,30.00,40.00,SummerDesignDay
358,5076168.194493667
406,0.0
5420,1987276.1411342165
16013,0.0
20359,0.0
31979,0.0
2,1, 6,15, 0, 5,40.00,50.00,SummerDesignDay
358,5076168.194493667
406,0.0
5420,1987276.1411342165
16013,0.0
20359,0.0
31979,0.0
2,1, 6,15, 0, 5,50.00,60.00,SummerDesignDay
358,5076168.194493667
406,0.0
5420,1987276.1411342165
16013,0.0
20359,0.0
31979,0.0
2,1, 6,15, 0, 5, 0.00,60.00,SummerDesignDay
359,30457009.166962
407,0.0
5421,11923656.8468053
16014,0.0
20360,0.0
31980,0.0
2,1, 6,15, 0, 6, 0.00,10.00,SummerDesignDay
358,5076168.194493667
406,0.0
5420,1987276.1411342165
16013,0.0
20359,0.0
31979,0.0
2,1, 6,15, 0, 6,10.00,20.00,SummerDesignDay
358,5076168.194493667
406,0.0
5420,1987276.1411342165
16013,0.0
20359,0.0
31979,0.0
2,1, 6,15, 0, 6,20.00,30.00,SummerDesignDay
358,5076168.194493667
406,0.0
5420,1987276.1411342165
16013,0.0
20359,0.0
31979,0.0
2,1, 6,15, 0, 6,30.00,40.00,SummerDesignDay
358,5076168.194493667
406,0.0
5420,1987276.1411342165
16013,0.0
20359,0.0
31979,0.0
2,1, 6,15, 0, 6,40.00,50.00,SummerDesignDay
358,5076168.194493667
406,0.0
5420,1987276.1411342165
16013,373031.037403738
20359,0.0
31979,0.0
2,1, 6,15, 0, 6,50.00,60.00,SummerDesignDay
358,5076168.194493667
406,0.0
5420,1987276.1411342165
16013,4239162.145887416
20359,0.0
31979,0.0
2,1, 6,15, 0, 6, 0.00,60.00,SummerDesignDay
359,30457009.166962
407,0.0
5421,11923656.8468053
16014,4612193.183291154
20360,0.0
31980,0.0
2,1, 6,15, 0, 7, 0.00,10.00,SummerDesignDay
358,5240557.802493666
406,164389.608
5420,1987276.1411342165
16013,5240557.802493668
20359,0.0
31979,0.0
2,1, 6,15, 0, 7,10.00,20.00,SummerDesignDay
358,5240557.802493666
406,164389.608
5420,1987276.1411342165
16013,5240557.802493665
20359,0.0
31979,0.0
2,1, 6,15, 0, 7,20.00,30.00,SummerDesignDay
358,5240557.802493666
406,164389.608
5420,1987276.1411342165
16013,5240557.802493665
20359,0.0
31979,0.0
2,1, 6,15, 0, 7,30.00,40.00,SummerDesignDay
358,5240557.802493666
406,164389.608
5420,1987276.1411342165
16013,14086626.708576467
20359,0.0
31979,0.0
2,1, 6,15, 0, 7,40.00,50.00,SummerDesignDay
358,5240557.802493666
406,164389.608
5420,1987276.1411342165
16013,25382709.87022596
20359,0.0
31979,0.0
2,1, 6,15, 0, 7,50.00,60.00,SummerDesignDay
358,5240557.802493666
406,164389.608
5420,1987276.1411342165
16013,36844888.176788904
20359,0.0
31979,0.0
2,1, 6,15, 0, 7, 0.00,60.00,SummerDesignDay
359,31443346.814961996
407,986337.648
5421,11923656.8468053
16014,92035898.16307232
20360,0.0
31980,0.0
2,1, 6,15, 0, 8, 0.00,10.00,SummerDesignDay
358,188764187.22205395
406,3071394.0608630152
5420,6836278.842505921
16013,91125038.89410977
20359,2485787.2016229727
31979,0.0
2,1, 6,15, 0, 8,10.00,20.00,SummerDesignDay
358,138816168.76580852
406,3038450.6901597804
5420,6836278.842505921
16013,102664618.4328812
20359,1512910.549470752
31979,0.0
2,1, 6,15, 0, 8,20.00,30.00,SummerDesignDay
358,119714740.25831178
406,3013366.4208423216
5420,6836278.842505921
16013,114164782.70488018
20359,1111789.3587836383
31979,0.0
2,1, 6,15, 0, 8,30.00,40.00,SummerDesignDay
358,119503622.19914334
406,2996311.935266534
5420,6836278.842505921
16013,118562903.76022476
20359,1029608.3898363862
31979,0.0
2,1, 6,15, 0, 8,40.00,50.00,SummerDesignDay
358,114988052.31964788
406,2987330.657805037
5420,6836278.842505921
16013,114717073.23500487
20359,908661.0445050508
31979,0.0
2,1, 6,15, 0, 8,50.00,60.00,SummerDesignDay
358,112436602.4376489
406,2986368.6358626266
5420,6836278.842505921
16013,112375677.34434232
20359,840130.4387333327
31979,0.0
2,1, 6,15, 0, 8, 0.00,60.00,SummerDesignDay
359,794223373.2026143
407,18093222.400799315
5421,41017673.05503552
16014,653610094.3714432
20360,7888886.982952132
31980,0.0
2,1, 6,15, 0, 9, 0.00,10.00,SummerDesignDay
358,194913604.7013323
406,15402477.948025268
5420,33643526.094505936
16013,159142861.56799158
20359,1933948.856314847
31979,0.0
2,1, 6,15, 0, 9,10.00,20.00,SummerDesignDay
358,176749505.8508281
406,15321132.688138578
5420,33643526.094505936
16013,169933542.5714516
20359,1676343.7247661022
31979,0.0
2,1, 6,15, 0, 9,20.00,30.00,SummerDesignDay
358,173748622.5754668
406,15257054.866055844
5420,33643526.094505936
16013,167962607.43228143
20359,1604184.367900561
31979,0.0
2,1, 6,15, 0, 9,30.00,40.00,SummerDesignDay
358,171880667.2575903
406,15209128.72023135
5420,33643526.094505936
16013,171855406.13408393
20359,1585005.6476203199
31979,0.0
2,1, 6,15, 0, 9,40.00,50.00,SummerDesignDay
358,170340922.81427854
406,15179668.172452206
5420,33643526.094505936
16013,170336499.27371
20359,1571210.2354017682
31979,0.0
2,1, 6,15, 0, 9,50.00,60.00,SummerDesignDay
358,169436477.1821694
406,15300584.196676696
5420,33643526.094505936
16013,169412376.52450138
20359,1568771.0697604981
31979,0.0
2,1, 6,15, 0, 9, 0.00,60.00,SummerDesignDay
359,1057069800.3816655
407,91670046.59157996
5421,201861156.56703562
16014,1008643293.50402
20360,9939463.901764097
31980,0.0
2,1, 6,15, 0,10, 0.00,10.00,SummerDesignDay
358,215436195.63228464
406,15280492.489820149
5420,59954388.97320004
16013,213711858.7061088
20359,2047312.98447851
31979,0.0
2,1, 6,15, 0,10,10.00,20.00,SummerDesignDay
358,208418775.48439184
406,15361804.933577947
5420,59954388.97320004
16013,208411504.44987974
20359,1951816.1661768411
31979,0.0
2,1, 6,15, 0,10,20.00,30.00,SummerDesignDay
358,207433364.5679701
406,15418940.619320279
5420,59954388.97320004
16013,207440786.0090207
20359,1956498.0165743292
31979,0.0
2,1, 6,15, 0,10,30.00,40.00,SummerDesignDay
358,207240823.40659308
406,15462178.192997178
5420,59954388.97320004
16013,207235689.77815783
20359,1975122.1248804475
31979,0.0
2,1, 6,15, 0,10,40.00,50.00,SummerDesignDay
358,207069592.68907163
406,15263492.291788911
5420,59954388.97320004
16013,211899235.58307344
20359,2004039.8295624645
31979,0.0
2,1, 6,15, 0,10,50.00,60.00,SummerDesignDay
358,206547331.3533547
406,15160919.918750854
5420,59954388.97320004
16013,219567493.8460608
20359,2023959.2037205575
31979,0.0
2,1, 6,15, 0,10, 0.00,60.00,SummerDesignDay
359,1252146083.133666
407,91947828.44625531
5421,359726333.8392002
16014,1268266568.3723013
20360,11958748.325393151
31980,0.0
2,1, 6,15, 0,11, 0.00,10.00,SummerDesignDay
358,213043892.10800168
406,18074133.27599432
5420,60977331.817200035
16013,226828346.76859617
20359,2104979.507036714
31979,0.0
2,1, 6,15, 0,11,10.00,20.00,SummerDesignDay
358,212951969.64150432
406,18220448.285042144
5420,60977331.817200035
16013,233667681.50692284
20359,2132883.3346928116
31979,0.0
2,1, 6,15, 0,11,20.00,30.00,SummerDesignDay
358,213546742.27297455
406,18573910.291311007
5420,60977331.817200035
16013,240072224.68591487
20359,2165194.1256641746
31979,0.0
2,1, 6,15, 0,11,30.00,40.00,SummerDesignDay
358,213844664.719335
406,18841549.063176114
5420,60977331.817200035
16013,246029560.29520702
20359,2192843.9200026523
31979,0.0
2,1, 6,15, 0,11,40.00,50.00,SummerDesignDay
358,213815676.4009548
406,18859155.871231943
5420,60977331.817200035
16013,251528147.8648545
20359,2219267.140246789
31979,0.0
2,1, 6,15, 0,11,50.00,60.00,SummerDesignDay
358,213905601.5694861
406,18949536.757634386
5420,60977331.817200035
16013,256557340.66867977
20359,2247458.9874567105
31979,0.0
2,1, 6,15, 0,11, 0.00,60.00,SummerDesignDay
359,1281108546.7122564
407,111518733.54438992
5421,365863990.90320027
16014,1454683301.7901752
20360,13062627.015099851
31980,0.0
2,1, 6,15, 0,12, 0.00,10.00,SummerDesignDay
358,218429774.08358058
406,19107657.00896502
5420,60977331.817200035
16013,261107403.9687362
20359,2363680.1941286186
31979,0.0
2,1, 6,15, 0,12,10.00,20.00,SummerDesignDay
358,217346993.07306108
406,19246568.95975363
5420,60977331.817200035
16013,265169533.73009706
20359,2364776.232934433
31979,0.0
2,1, 6,15, 0,12,20.00,30.00,SummerDesignDay
358,217127409.85675496
406,19244934.34472234
5420,60977331.817200035
16013,268735877.04864526
20359,2379009.70056834
31979,0.0
2,1, 6,15, 0,12,30.00,40.00,SummerDesignDay
358,216763318.45257765
406,19120343.64236853
5420,60977331.817200035
16013,271799557.37155104
20359,2392681.5645489017
31979,0.0
2,1, 6,15, 0,12,40.00,50.00,SummerDesignDay
358,216783453.18066204
406,19066810.032810032
5420,60977331.817200035
16013,274354712.14013875
20359,2413098.343599545
31979,0.0
2,1, 6,15, 0,12,50.00,60.00,SummerDesignDay
358,216778085.40927753
406,19071528.717247855
5420,60977331.817200035
16013,276396562.2847138
20359,2432407.6910938174
31979,0.0
2,1, 6,15, 0,12, 0.00,60.00,SummerDesignDay
359,1303229034.055914
407,114857842.70586741
5421,365863990.90320027
16014,1617563646.543882
20360,14345653.726873655
31980,0.0
2,1, 6,15, 0,13, 0.00,10.00,SummerDesignDay
358,177116576.1825803
406,12027658.611286754
5420,48385102.5972
16013,277921561.1181596
20359,1986244.8355387123
31979,0.0
2,1, 6,15, 0,13,10.00,20.00,SummerDesignDay
358,183434363.64364886
406,11939793.94594812
5420,48385102.5972
16013,278927692.1764251
20359,2110608.1752577415
31979,0.0
2,1, 6,15, 0,13,20.00,30.00,SummerDesignDay
358,183483285.05278486
406,11907615.375011677
5420,48385102.5972
16013,279414626.21791875
20359,2136190.711969537
31979,0.0
2,1, 6,15, 0,13,30.00,40.00,SummerDesignDay
358,182863094.59440458
406,11877429.144543633
5420,48385102.5972
16013,279382261.71399647
20359,2138759.353636761
31979,0.0
2,1, 6,15, 0,13,40.00,50.00,SummerDesignDay
358,183233449.85427475
406,11894927.909874462
5420,48385102.5972
16013,278829030.5751207
20359,2163673.2898645625
31979,0.0
2,1, 6,15, 0,13,50.00,60.00,SummerDesignDay
358,183949644.17099255
406,12166735.917954406
5420,48385102.5972
16013,277753817.3776755
20359,2190610.002514898
31979,0.0
2,1, 6,15, 0,13, 0.00,60.00,SummerDesignDay
359,1094080413.4986858
407,71814160.90461905
5421,290310615.5832
16014,1672228989.1792963
20360,12726086.368782215
31980,0.0
2,1, 6,15, 0,14, 0.00,10.00,SummerDesignDay
358,221332027.54470497
406,19436808.322436538
5420,60977331.817200035
16013,276157379.3132647
20359,2572351.327911567
31979,0.0
2,1, 6,15, 0,14,10.00,20.00,SummerDesignDay
358,216269887.6603411
406,19478371.696070176
5420,60977331.817200035
16013,274042079.8623155
20359,2538392.111274945
31979,0.0
2,1, 6,15, 0,14,20.00,30.00,SummerDesignDay
358,217308653.8983139
406,19508997.756646954
5420,60977331.817200035
16013,271411538.6051688
20359,2551098.0531131043
31979,0.0
2,1, 6,15, 0,14,30.00,40.00,SummerDesignDay
358,217188686.97093046
406,19484089.193832166
5420,60977331.817200035
16013,268270464.29636484
20359,2563292.8422813974
31979,0.0
2,1, 6,15, 0,14,40.00,50.00,SummerDesignDay
358,216951692.82309058
406,19418702.980089407
5420,60977331.817200035
16013,264624578.75006154
20359,2570103.501895869
31979,0.0
2,1, 6,15, 0,14,50.00,60.00,SummerDesignDay
358,217036564.30630207
406,19408830.66417285
5420,60977331.817200035
16013,260480575.95641994
20359,2581855.5689336443
31979,0.0
2,1, 6,15, 0,14, 0.00,60.00,SummerDesignDay
359,1306087513.2036831
407,116735800.61324808
5421,365863990.90320027
16014,1614986616.7835953
20360,15377093.405410528
31980,0.0
2,1, 6,15, 0,15, 0.00,10.00,SummerDesignDay
358,213595579.93221384
406,19302597.307566907
5420,60977331.817200035
16013,255846094.45947117
20359,2512242.2794198142
31979,0.0
2,1, 6,15, 0,15,10.00,20.00,SummerDesignDay
358,214604774.19999346
406,19282592.43101651
5420,60977331.817200035
16013,250729694.46523649
20359,2527377.541870593
31979,0.0
2,1, 6,15, 0,15,20.00,30.00,SummerDesignDay
358,214282161.18013534
406,19069265.119386747
5420,60977331.817200035
16013,245140836.1908216
20359,2526392.0272038393
31979,0.0
2,1, 6,15, 0,15,30.00,40.00,SummerDesignDay
358,213584628.9913319
406,18619110.20560075
5420,60977331.817200035
16013,239089857.9469173
20359,2521000.7489166195
31979,0.0
2,1, 6,15, 0,15,40.00,50.00,SummerDesignDay
358,213692466.72780406
406,18379483.59074153
5420,60977331.817200035
16013,232587953.2860085
20359,2528579.470022735
31979,0.0
2,1, 6,15, 0,15,50.00,60.00,SummerDesignDay
358,212914453.71401006
406,17609362.30226178
5420,60977331.817200035
16013,225647146.94088462
20359,2529114.8807822596
31979,0.0
2,1, 6,15, 0,15, 0.00,60.00,SummerDesignDay
359,1282674064.7454886
407,112262410.95657423
5421,365863990.90320027
16014,1449041583.2893398
20360,15144706.948215859
31980,0.0
2,1, 6,15, 0,16, 0.00,10.00,SummerDesignDay
358,211380336.34700418
406,16750751.80927423
5420,60977331.817200035
16013,218280269.48993915
20359,2502118.2215798628
31979,0.0
2,1, 6,15, 0,16,10.00,20.00,SummerDesignDay
358,211334632.27912197
406,16729150.813335879
5420,60977331.817200035
16013,211327850.18411618
20359,2487467.028016703
31979,0.0
2,1, 6,15, 0,16,20.00,30.00,SummerDesignDay
358,211332038.78390637
406,16716288.623644155
5420,60977331.817200035
16013,211328844.82525015
20359,2475140.1523928456
31979,0.0
2,1, 6,15, 0,16,30.00,40.00,SummerDesignDay
358,211287511.1459174
406,16710328.992348965
5420,60977331.817200035
16013,211284678.73101187
20359,2461996.2861620076
31979,0.0
2,1, 6,15, 0,16,40.00,50.00,SummerDesignDay
358,211290548.1118826
406,16624061.9177926
5420,60977331.817200035
16013,211286629.26568183
20359,2451624.8568417304
31979,0.0
2,1, 6,15, 0,16,50.00,60.00,SummerDesignDay
358,211508413.58051634
406,16650916.584172584
5420,60977331.817200035
16013,211504476.51932424
20359,2443607.0985473366
31979,0.0
2,1, 6,15, 0,16, 0.00,60.00,SummerDesignDay
359,1268133480.2483487
407,100181498.74056843
5421,365863990.90320027
16014,1275012749.0153234
20360,14821953.643540487
31980,0.0
2,1, 6,15, 0,17, 0.00,10.00,SummerDesignDay
358,209418939.62077287
406,16908877.527769934
5420,60977331.817200035
16013,208807408.13222238
20359,2377653.9464732455
31979,0.0
2,1, 6,15, 0,17,10.00,20.00,SummerDesignDay
358,210922865.8599141
406,17561569.91154025
5420,60977331.817200035
16013,198871917.51890835
20359,2372586.407622928
31979,0.0
2,1, 6,15, 0,17,20.00,30.00,SummerDesignDay
358,210704629.7639583
406,17557481.42946597
5420,60977331.817200035
16013,188638364.88684973
20359,2352557.790917235
31979,0.0
2,1, 6,15, 0,17,30.00,40.00,SummerDesignDay
358,210540867.810267
406,17575010.94337839
5420,60977331.817200035
16013,178125681.43612453
20359,2332303.8416558383
31979,0.0
2,1, 6,15, 0,17,40.00,50.00,SummerDesignDay
358,210482418.45240265
406,17615827.553205792
5420,60977331.817200035
16013,167353441.7865299
20359,2314079.9598209704
31979,0.0
2,1, 6,15, 0,17,50.00,60.00,SummerDesignDay
358,210220466.7289945
406,17533452.52426419
5420,60977331.817200035
16013,156368662.69953713
20359,2294129.665571934
31979,0.0
2,1, 6,15, 0,17, 0.00,60.00,SummerDesignDay
359,1262290188.2363095
407,104752219.88962452
5421,365863990.90320027
16014,1098165476.460172
20360,14043311.61206215
31980,0.0
2,1, 6,15, 0,18, 0.00,10.00,SummerDesignDay
358,209506614.7477088
406,17732003.88687703
5420,58650592.782505944
16013,145138978.67207405
20359,2305849.0945403297
31979,0.0
2,1, 6,15, 0,18,10.00,20.00,SummerDesignDay
358,209573414.93178573
406,17817218.076734107
5420,58650592.782505944
16013,133713652.99469173
20359,2290234.59190269
31979,0.0
2,1, 6,15, 0,18,20.00,30.00,SummerDesignDay
358,209392766.49109727
406,17955894.781618066
5420,58650592.782505944
16013,122116489.64488482
20359,2263231.9915361414
31979,0.0
2,1, 6,15, 0,18,30.00,40.00,SummerDesignDay
358,209396582.8619301
406,18165051.853390425
5420,58650592.782505944
16013,110373682.20130104
20359,2239571.476597383
31979,0.0
2,1, 6,15, 0,18,40.00,50.00,SummerDesignDay
358,209541662.85161376
406,18457668.94833115
5420,58650592.782505944
16013,98515325.5683413
20359,2217003.679251236
31979,0.0
2,1, 6,15, 0,18,50.00,60.00,SummerDesignDay
358,208810228.556514
406,18417523.726702876
5420,58650592.782505944
16013,86578232.66073902
20359,2185507.426704487
31979,0.0
2,1, 6,15, 0,18, 0.00,60.00,SummerDesignDay
359,1256221270.4406497
407,108545361.27365366
5421,351903556.69503564
16014,696436361.742032
20360,13501398.260532266
31980,0.0
2,1, 6,15, 0,19, 0.00,10.00,SummerDesignDay
358,158349336.59350494
406,17588689.058470014
5420,34666468.93850594
16013,74614871.13794386
20359,1476290.0672587128
31979,0.0
2,1, 6,15, 0,19,10.00,20.00,SummerDesignDay
358,168072034.15480316
406,18283894.827254564
5420,34666468.93850594
16013,62690935.37617367
20359,1661854.4240114898
31979,0.0
2,1, 6,15, 0,19,20.00,30.00,SummerDesignDay
358,169229398.96582603
406,19367874.726765208
5420,34666468.93850594
16013,50927393.619022995
20359,1649360.1250970564
31979,0.0
2,1, 6,15, 0,19,30.00,40.00,SummerDesignDay
358,170595757.7580263
406,20982649.190903485
5420,34666468.93850594
16013,39538905.6679383
20359,1617284.826848899
31979,0.0
2,1, 6,15, 0,19,40.00,50.00,SummerDesignDay
358,172285302.27256945
406,23222068.409367107
5420,34666468.93850594
16013,28958017.27627431
20359,1573887.3922745513
31979,0.0
2,1, 6,15, 0,19,50.00,60.00,SummerDesignDay
358,174063335.58370617
406,25677782.8049875
5420,34666468.93850594
16013,19998073.79699994
20359,1527645.121545514
31979,0.0
2,1, 6,15, 0,19, 0.00,60.00,SummerDesignDay
359,1012595165.3284359
407,125122959.0177479
5421,207998813.63103566
16014,276728196.87435305
20360,9506321.957036223
31980,0.0
2,1, 6,15, 0,20, 0.00,10.00,SummerDesignDay
358,14304618.055865366
406,3356504.3160000006
5420,7859221.68650592
16013,14304618.055865373
20359,0.0
31979,0.0
2,1, 6,15, 0,20,10.00,20.00,SummerDesignDay
358,14304618.055865366
406,3356504.3160000006
5420,7859221.68650592
16013,14249999.999999996
20359,0.0
31979,0.0
2,1, 6,15, 0,20,20.00,30.00,SummerDesignDay
358,14304618.055865366
406,3356504.3160000006
5420,7859221.68650592
16013,14250000.0
20359,0.0
31979,0.0
2,1, 6,15, 0,20,30.00,40.00,SummerDesignDay
358,14304618.055865366
406,3356504.3160000006
5420,7859221.68650592
16013,14250000.0
20359,0.0
31979,0.0
2,1, 6,15, 0,20,40.00,50.00,SummerDesignDay
358,14304618.055865366
406,3356504.3160000006
5420,7859221.68650592
16013,14250000.0
20359,0.0
31979,0.0
2,1, 6,15, 0,20,50.00,60.00,SummerDesignDay
358,14304618.055865366
406,3356504.3160000006
5420,7859221.68650592
16013,14250000.0
20359,0.0
31979,0.0
2,1, 6,15, 0,20, 0.00,60.00,SummerDesignDay
359,85827708.33519219
407,20139025.896
5421,47155330.11903552
16014,85554618.05586538
20360,0.0
31980,0.0
2,1, 6,15, 0,21, 0.00,10.00,SummerDesignDay
358,9784572.956493665
406,3356504.3160000006
5420,3339176.587134213
16013,9784572.956493668
20359,0.0
31979,0.0
2,1, 6,15, 0,21,10.00,20.00,SummerDesignDay
358,9784572.956493665
406,3356504.3160000006
5420,3339176.587134213
16013,9784572.956493666
20359,0.0
31979,0.0
2,1, 6,15, 0,21,20.00,30.00,SummerDesignDay
358,9784572.956493665
406,3356504.3160000006
5420,3339176.587134213
16013,9784572.956493666
20359,0.0
31979,0.0
2,1, 6,15, 0,21,30.00,40.00,SummerDesignDay
358,9784572.956493665
406,3356504.3160000006
5420,3339176.587134213
16013,9784572.956493666
20359,0.0
31979,0.0
2,1, 6,15, 0,21,40.00,50.00,SummerDesignDay
358,9784572.956493665
406,3356504.3160000006
5420,3339176.587134213
16013,9784572.956493666
20359,0.0
31979,0.0
2,1, 6,15, 0,21,50.00,60.00,SummerDesignDay
358,9784572.956493665
406,3356504.3160000006
5420,3339176.587134213
16013,9784572.956493666
20359,0.0
31979,0.0
2,1, 6,15, 0,21, 0.00,60.00,SummerDesignDay
359,58707437.73896198
407,20139025.896
5421,20035059.522805277
16014,58707437.73896201
20360,0.0
31980,0.0
2,1, 6,15, 0,22, 0.00,10.00,SummerDesignDay
358,8682300.038493669
406,2583189.0000000005
5420,3010218.9851342137
16013,8682300.038493669
20359,0.0
31979,0.0
2,1, 6,15, 0,22,10.00,20.00,SummerDesignDay
358,8682300.038493669
406,2583189.0000000005
5420,3010218.9851342137
16013,8682300.038493669
20359,0.0
31979,0.0
2,1, 6,15, 0,22,20.00,30.00,SummerDesignDay
358,8682300.038493669
406,2583189.0000000005
5420,3010218.9851342137
16013,8682300.038493669
20359,0.0
31979,0.0
2,1, 6,15, 0,22,30.00,40.00,SummerDesignDay
358,8682300.038493669
406,2583189.0000000005
5420,3010218.9851342137
16013,8682300.038493669
20359,0.0
31979,0.0
2,1, 6,15, 0,22,40.00,50.00,SummerDesignDay
358,8682300.038493669
406,2583189.0000000005
5420,3010218.9851342137
16013,8682300.038493669
20359,0.0
31979,0.0
2,1, 6,15, 0,22,50.00,60.00,SummerDesignDay
358,8682300.038493669
406,2583189.0000000005
5420,3010218.9851342137
16013,8682300.038493669
20359,0.0
31979,0.0
2,1, 6,15, 0,22, 0.00,60.00,SummerDesignDay
359,52093800.230962016
407,15499134.000000002
5421,18061313.91080528
16014,52093800.230962016
20360,0.0
31980,0.0
2,1, 6,15, 0,23, 0.00,10.00,SummerDesignDay
358,5076168.194493667
406,0.0
5420,1987276.1411342165
16013,5076168.194493666
20359,0.0
31979,0.0
2,1, 6,15, 0,23,10.00,20.00,SummerDesignDay
358,5076168.194493667
406,0.0
5420,1987276.1411342165
16013,5076168.194493666
20359,0.0
31979,0.0
2,1, 6,15, 0,23,20.00,30.00,SummerDesignDay
358,5076168.194493667
406,0.0
5420,1987276.1411342165
16013,5076168.194493666
20359,0.0
31979,0.0
2,1, 6,15, 0,23,30.00,40.00,SummerDesignDay
358,5076168.194493667
406,0.0
5420,1987276.1411342165
16013,5076168.194493666
20359,0.0
31979,0.0
2,1, 6,15, 0,23,40.00,50.00,SummerDesignDay
358,5076168.194493667
406,0.0
5420,1987276.1411342165
16013,5076168.194493666
20359,0.0
31979,0.0
2,1, 6,15, 0,23,50.00,60.00,SummerDesignDay
358,5076168.194493667
406,0.0
5420,1987276.1411342165
16013,5076168.194493666
20359,0.0
31979,0.0
2,1, 6,15, 0,23, 0.00,60.00,SummerDesignDay
359,30457009.166962
407,0.0
5421,11923656.8468053
16014,30457009.166961998
20360,0.0
31980,0.0
2,1, 6,15, 0,24, 0.00,10.00,SummerDesignDay
358,5076168.194493667
406,0.0
5420,1987276.1411342165
16013,5076168.194493666
20359,0.0
31979,0.0
2,1, 6,15, 0,24,10.00,20.00,SummerDesignDay
358,5076168.194493667
406,0.0
5420,1987276.1411342165
16013,5076168.194493666
20359,0.0
31979,0.0
2,1, 6,15, 0,24,20.00,30.00,SummerDesignDay
358,5076168.194493667
406,0.0
5420,1987276.1411342165
16013,5076168.194493666
20359,0.0
31979,0.0
2,1, 6,15, 0,24,30.00,40.00,SummerDesignDay
358,5076168.194493667
406,0.0
5420,1987276.1411342165
16013,5076168.194493666
20359,0.0
31979,0.0
2,1, 6,15, 0,24,40.00,50.00,SummerDesignDay
358,5076168.194493667
406,0.0
5420,1987276.1411342165
16013,5076168.194493666
20359,0.0
31979,0.0
2,1, 6,15, 0,24,50.00,60.00,SummerDesignDay
358,5076168.194493667
406,0.0
5420,1987276.1411342165
16013,5076168.194493666
20359,0.0
31979,0.0
2,1, 6,15, 0,24, 0.00,60.00,SummerDesignDay
359,30457009.166962
407,0.0
5421,11923656.8468053
16014,30457009.166961998
20360,0.0
31980,0.0
3,1, 6,15, 0,SummerDesignDay
360,14641587299.643507,5076168.194493667, 1,10,221332027.54470497,14,10
408,1224265608.5249276,0.0, 1,10,25677782.8049875,19,60
5422,3840566709.96364,1987276.1411342165, 1,10,60977331.817200035,11,10
16015,14439284843.632017,0.0, 1,10,279414626.21791875,13,30
20361,152316252.14766264,0.0, 1,10,2581855.5689336443,14,60
31981,0.0,0.0, 1,10,0.0, 1,10
4,1, 6
361,14641587299.643507,5076168.194493667,15, 1,10,221332027.54470497,15,14,10
409,1224265608.5249276,0.0,15, 1,10,25677782.8049875,15,19,60
5423,3840566709.96364,1987276.1411342165,15, 1,10,60977331.817200035,15,11,10
16016,14439284843.632017,0.0,15, 1,10,279414626.21791875,15,13,30
20362,152316252.14766264,0.0,15, 1,10,2581855.5689336443,15,14,60
31982,0.0,0.0,15, 1,10,0.0,15, 1,10
5,1
363,14641587299.643507,5076168.194493667, 6,15, 1,10,221332027.54470497, 6,15,14,10